<?xml version="1.0" encoding="utf-8"?>
<VTKFile byte_order="LittleEndian" compressor="vtkZLibDataCompressor" type="PolyData"
         version="0.1">
   <PolyData>
      <Piece NumberOfLines="0" NumberOfPoints="99" NumberOfPolys="194" NumberOfStrips="0"
             NumberOfVerts="0">
         <PointData Normals="Normals">
            <DataArray Name="Normals" NumberOfComponents="3" format="ascii" type="Float32">
-0.984280 0.011050 -0.176269
-0.889975 0.310137 -0.334306
-0.886128 0.142050 -0.441134
-0.875364 -0.262436 -0.406035
-0.699910 -0.714103 0.013489
-0.631485 -0.579492 0.515186
-0.898519 0.055506 0.435410
-0.913291 0.403889 -0.052658
-0.645537 0.705260 -0.293071
-0.665611 0.370935 -0.647587
-0.643716 0.214909 -0.734468
-0.449121 -0.310887 -0.837639
0.013125 -0.993433 -0.113663
0.172633 -0.856752 0.485978
-0.243129 -0.602713 0.760016
-0.613210 0.302424 0.729735
-0.568393 0.792868 0.219750
-0.262769 0.935520 -0.236124
-0.307473 0.393522 -0.866372
-0.067519 0.210519 -0.975255
0.203740 -0.594941 -0.777518
0.398168 -0.917308 0.002903
0.457610 -0.847788 0.268047
0.241111 -0.938348 0.247725
-0.293712 -0.770467 0.565786
-0.209268 -0.387412 0.897841
-0.457859 0.547910 0.700115
-0.517300 0.825819 0.224553
-0.127716 0.988731 0.078105
-0.321777 0.776454 -0.541829
-0.068233 0.116729 -0.990817
0.300439 -0.229351 -0.925816
0.572692 0.053986 -0.817991
0.439573 -0.857279 -0.268046
0.159001 -0.982720 0.094760
-0.051729 -0.998325 -0.025898
-0.411722 -0.858876 -0.304659
-0.794617 -0.590510 0.141003
-0.735698 -0.040305 0.676109
-0.429338 -0.017921 0.902966
-0.561752 0.108288 0.820188
-0.756988 0.447975 0.475697
-0.407856 0.896787 -0.171541
-0.290660 0.942357 -0.165769
-0.256521 0.965738 0.039325
0.069622 0.827712 -0.556818
-0.025508 0.247147 -0.968642
-0.197544 -0.397323 -0.896165
-0.185747 -0.819476 -0.542178
0.141806 -0.810050 -0.568955
-0.269020 -0.944656 -0.187758
0.045154 -0.948716 -0.312889
0.100469 -0.987746 -0.119430
-0.217686 -0.379032 0.899415
-0.157880 0.295538 0.942195
-0.188285 -0.003522 0.982108
-0.236394 -0.058785 0.969877
-0.082075 0.844337 0.529490
-0.012394 0.982001 -0.188468
-0.041575 0.998387 -0.038650
-0.066973 0.990301 0.121732
0.464029 0.851134 -0.245453
0.291783 0.323515 -0.900111
-0.257490 -0.418525 -0.870940
-0.361093 -0.759438 -0.541170
-0.187001 -0.958509 -0.215154
0.019261 -0.991653 0.127493
0.244811 -0.966690 -0.074687
0.637039 -0.494853 0.591018
0.412423 0.141494 0.899937
0.350768 0.184651 0.918077
0.371815 -0.216600 0.902684
0.412499 -0.018783 0.910764
0.530909 0.610500 0.587729
0.429044 0.902539 0.036664
0.321411 0.945649 -0.049435
0.585629 0.615431 -0.527526
0.553267 0.184933 -0.812217
0.495341 -0.544382 -0.676968
0.289972 -0.930030 -0.225745
0.292929 -0.879480 -0.375111
0.406275 -0.908648 -0.096435
0.187531 -0.951854 0.242502
0.360333 -0.932306 0.031072
0.457080 -0.756931 0.467047
0.303022 0.164693 0.938645
0.305328 0.298617 0.904214
0.584993 -0.035514 0.810260
0.716904 0.418282 0.557754
0.561350 0.802336 0.202837
0.367945 0.929052 0.038450
0.456838 0.880593 -0.125915
0.921099 0.263114 -0.286963
0.785741 -0.618547 -0.003236
0.711039 -0.375816 0.594295
0.640610 0.465076 0.611001
0.630212 0.736191 0.246690
0.867628 -0.488842 0.090859
0.934469 0.100719 0.341500
</DataArray>
         </PointData>
         <Points>
            <DataArray NumberOfComponents="3" format="ascii" type="Float32">	-0.016021 -0.005773 0.007319
-0.015791 -0.001709 0.003321
-0.016733 -0.004263 0.000796
-0.016341 -0.009392 0.001965
-0.014357 -0.011160 0.007423
-0.012815 -0.008737 0.011592
-0.012096 -0.004306 0.013474
-0.013640 -0.000916 0.009191
-0.013014 0.008402 -0.002918
-0.015603 0.000363 -0.009850
-0.016611 -0.002378 -0.012552
-0.016668 -0.010315 -0.012558
-0.014031 -0.013840 -0.005284
-0.009503 -0.011069 0.007046
-0.007309 -0.004464 0.012921
-0.006390 0.000903 0.015332
-0.009013 0.006489 0.008058
-0.009630 0.009072 -0.011874
-0.010854 0.005958 -0.015162
-0.010891 0.000709 -0.015166
-0.011833 -0.007908 -0.017580
-0.008883 -0.009810 -0.009482
-0.006822 -0.009892 -0.003848
-0.004051 -0.006355 0.003670
-0.000868 -0.002759 0.012301
0.000262 -0.000894 0.015355
0.000051 0.002795 0.014712
-0.002391 0.006568 0.007965
-0.006369 0.008542 -0.002952
-0.004673 0.010541 -0.016543
-0.005077 0.008107 -0.017601
-0.005125 0.001357 -0.017606
-0.005891 -0.003949 -0.019606
-0.005319 -0.007954 -0.017967
-0.001532 -0.006676 -0.007634
0.000844 -0.004636 -0.001176
0.003375 -0.008159 0.005806
0.005558 -0.009117 0.011792
0.006065 -0.007122 0.013145
0.005289 -0.001614 0.010918
0.005903 0.006381 0.012450
0.005705 0.011758 0.011810
0.004356 0.012208 0.008112
0.001543 0.009358 0.000479
-0.001827 0.009264 -0.008737
0.000378 0.013197 -0.020977
-0.000214 0.008327 -0.022505
0.000141 0.001011 -0.021396
0.002170 -0.000758 -0.015822
0.003889 -0.006587 -0.011013
0.005358 -0.008226 -0.006964
0.008718 -0.009819 0.002250
0.011829 -0.016224 0.010873
0.013436 -0.013425 0.015219
0.013642 -0.008552 0.015691
0.012528 -0.002166 0.012526
0.013054 0.005266 0.013824
0.012878 0.013894 0.013188
0.009394 0.013113 0.003677
0.006266 0.010954 -0.004835
0.003252 0.012608 -0.013112
0.006505 0.009905 -0.022363
0.005363 0.006290 -0.025418
0.005032 -0.000895 -0.026186
0.007544 -0.007106 -0.019206
0.008572 -0.010241 -0.016332
0.011557 -0.007268 -0.008231
0.015639 -0.006681 0.002924
0.017759 -0.007763 0.008731
0.017541 -0.005011 0.008088
0.017024 -0.002194 0.006624
0.017496 0.000865 0.007859
0.018099 0.007109 0.009391
0.017815 0.012550 0.008514
0.017171 0.012555 0.006753
0.013015 0.010656 -0.004578
0.012754 0.006111 -0.023397
0.011130 -0.002124 -0.027688
0.011185 -0.006313 -0.027457
0.012416 -0.008386 -0.024055
0.013489 -0.008646 -0.021121
0.014504 -0.010781 -0.018304
0.016250 -0.009610 -0.013548
0.020909 -0.006527 -0.000867
0.021699 -0.007222 0.001304
0.022126 -0.004539 0.002420
0.021690 -0.002472 0.001190
0.021664 0.003153 0.001019
0.021692 0.006965 0.001021
0.020495 0.007665 -0.002266
0.016542 0.007388 -0.013066
0.013449 0.007167 -0.021518
0.019253 0.003878 -0.023785
0.021815 -0.004271 -0.016632
0.026947 -0.001069 -0.002657
0.024888 0.002451 -0.008349
0.023796 0.005710 -0.011399
0.023596 -0.002347 -0.016344
0.026482 -0.000936 -0.008478
</DataArray>
         </Points>
         <Polys>
            <DataArray Name="connectivity" format="ascii" type="Int32">
1 2 0 2 3 0 3 4 0 4 5 0 5 6 0 6 7 0 7 1 0 8 9 1 9 2 1 9 10 2 10 3 2 10 11 3 11 12 3 12 4 3 12 13 4 13 5 4 13 14 5 14 6 5 14 15 6 15 16 6 16 7 6 16 8 7 8 1 7 17 18 8 18 9 8 18 19 9 19 10 9 19 11 10 19 20 11 20 12 11 20 21 12 21 22 12 22 13 12 22 23 13 23 24 13 24 14 13 24 25 14 25 15 14 25 26 15 26 27 15 27 16 15 27 28 16 28 8 16 28 17 8 29 18 17 29 30 18 30 19 18 30 31 19 31 32 19 32 20 19 32 33 20 33 21 20 33 34 21 34 22 21 34 35 22 35 23 22 35 36 23 36 24 23 36 37 24 37 38 24 38 39 24 39 25 24 39 40 25 40 26 25 40 27 26 40 41 27 41 42 27 42 43 27 43 28 27 43 44 28 44 17 28 44 29 17 45 46 29 46 30 29 46 47 30 47 31 30 47 48 31 48 49 31 49 32 31 49 33 32 49 34 33 49 50 34 50 35 34 50 51 35 51 36 35 51 52 36 52 37 36 52 53 37 53 38 37 53 54 38 54 39 38 54 55 39 55 40 39 55 56 40 56 41 40 56 57 41 57 42 41 57 58 42 58 43 42 58 59 43 59 44 43 59 60 44 60 29 44 60 45 29 61 46 45 61 62 46 62 47 46 62 63 47 63 48 47 63 49 48 63 64 49 64 50 49 64 65 50 65 66 50 66 51 50 66 67 51 67 52 51 67 68 52 68 53 52 68 69 53 69 54 53 69 70 54 70 55 54 70 71 55 71 56 55 71 72 56 72 57 56 72 73 57 73 74 57 74 58 57 74 75 58 75 59 58 75 61 59 61 60 59 61 45 60 76 62 61 76 77 62 77 63 62 77 78 63 78 64 63 78 79 64 79 80 64 80 65 64 80 81 65 81 82 65 82 66 65 82 67 66 82 83 67 83 84 67 84 68 67 84 69 68 84 85 69 85 70 69 85 86 70 86 71 70 86 87 71 87 72 71 87 88 72 88 73 72 88 74 73 88 89 74 89 75 74 89 90 75 90 61 75 90 91 61 91 76 61 92 77 76 92 78 77 92 93 78 93 79 78 93 80 79 93 81 80 93 82 81 93 94 82 94 83 82 94 84 83 94 85 84 94 86 85 94 95 86 95 87 86 95 88 87 95 89 88 95 96 89 96 90 89 96 91 90 96 92 91 92 76 91 97 93 92 97 94 93 97 98 94 98 95 94 98 96 95 98 92 96 98 97 92 </DataArray>
            <DataArray Name="offsets" format="ascii" type="Int32">
3 6 9 12 15 18 21 24 27 30 33 36 39 42 45 48 51 54 57 60 63 66 69 72 75 78 81 84 87 90 93 96 99 102 105 108 111 114 117 120 123 126 129 132 135 138 141 144 147 150 153 156 159 162 165 168 171 174 177 180 183 186 189 192 195 198 201 204 207 210 213 216 219 222 225 228 231 234 237 240 243 246 249 252 255 258 261 264 267 270 273 276 279 282 285 288 291 294 297 300 303 306 309 312 315 318 321 324 327 330 333 336 339 342 345 348 351 354 357 360 363 366 369 372 375 378 381 384 387 390 393 396 399 402 405 408 411 414 417 420 423 426 429 432 435 438 441 444 447 450 453 456 459 462 465 468 471 474 477 480 483 486 489 492 495 498 501 504 507 510 513 516 519 522 525 528 531 534 537 540 543 546 549 552 555 558 561 564 567 570 573 576 579 582 </DataArray>
         </Polys>
      </Piece>
   </PolyData>
</VTKFile>