<?xml version="1.0" encoding="utf-8"?>
<VTKFile byte_order="LittleEndian" compressor="vtkZLibDataCompressor" type="PolyData"
         version="0.1">
   <PolyData>
      <Piece NumberOfLines="0" NumberOfPoints="456" NumberOfPolys="908" NumberOfStrips="0"
             NumberOfVerts="0">
         <PointData Normals="Normals">
            <DataArray Name="Normals" NumberOfComponents="3" format="ascii" type="Float32">
0.001802 0.770265 -0.637722
0.080536 0.341305 -0.936496
-0.261491 0.594688 -0.760242
0.294673 0.734484 -0.611311
-0.021499 0.850627 -0.525330
0.345921 0.819241 -0.457365
-0.363485 0.290920 -0.885011
-0.281156 0.020009 -0.959454
-0.049834 -0.126800 -0.990676
0.294208 0.012871 -0.955655
0.503436 0.221009 -0.835288
0.485169 0.482857 -0.729013
-0.345770 0.791739 -0.503580
-0.589916 0.520509 -0.617308
0.661767 0.557970 -0.500733
-0.060030 0.949096 -0.309212
0.286543 0.909996 -0.299666
0.603183 0.752306 -0.264964
-0.626172 0.086950 -0.774822
-0.393325 -0.236702 -0.888407
-0.019136 -0.320673 -0.946997
0.384727 -0.209864 -0.898856
0.600386 -0.073036 -0.796368
0.740571 0.202020 -0.640892
-0.390880 0.848657 -0.356363
-0.641616 0.662844 -0.385962
-0.807183 0.285337 -0.516758
0.843082 0.448514 -0.296730
-0.178313 0.981457 -0.070327
0.129993 0.990705 -0.040078
0.407588 0.913118 -0.009411
0.686181 0.726973 0.025805
-0.692318 -0.167745 -0.701824
-0.374273 -0.430478 -0.821345
0.018275 -0.517214 -0.855661
0.451235 -0.446506 -0.772670
0.741746 -0.213542 -0.635777
0.881678 0.085763 -0.463992
-0.480568 0.867476 -0.128603
-0.752529 0.622662 -0.214456
-0.917293 0.266887 -0.295541
-0.877500 -0.126968 -0.462464
0.983050 0.084345 -0.162783
0.897923 0.438573 0.037247
-0.493977 0.854538 0.160471
-0.194235 0.959109 0.205868
0.093216 0.965056 0.244904
0.401454 0.864656 0.302002
0.700688 0.623031 0.347662
-0.634975 -0.473762 -0.610210
-0.275622 -0.644378 -0.713308
0.179437 -0.686019 -0.705110
0.587405 -0.562527 -0.581824
0.862532 -0.269802 -0.428071
-0.782310 0.619270 0.067043
-0.969261 0.243692 -0.033870
-0.961837 -0.196754 -0.190150
-0.724241 -0.498459 -0.476459
0.992782 -0.104265 0.059262
0.921349 0.265987 0.283490
-0.497417 0.792744 0.352326
-0.804969 0.552242 0.216918
-0.187639 0.881658 0.432979
0.124675 0.847234 0.516382
0.422327 0.684092 0.594692
0.658318 0.411783 0.630121
-0.341981 -0.745995 -0.571437
0.156828 -0.773496 -0.614092
0.566156 -0.711792 -0.415715
0.864394 -0.466003 -0.188852
-0.976730 0.213611 0.019218
-0.968529 -0.219517 -0.117318
-0.739264 -0.618277 -0.266876
-0.327919 -0.831465 -0.448482
0.911563 -0.270542 0.309613
0.855486 0.077182 0.512041
-0.327510 0.722976 0.608312
-0.648468 0.568321 0.506460
-0.857704 0.289576 0.424841
-0.064896 0.716154 0.694919
0.224291 0.584408 0.779847
0.429830 0.345194 0.834318
0.597854 0.009791 0.801545
0.101313 -0.868247 -0.485678
0.621683 -0.703553 -0.344272
0.823470 -0.566855 -0.023919
-0.982313 0.013515 0.186759
-0.858319 -0.502964 0.101563
-0.529784 -0.848132 0.000860
-0.287800 -0.952777 -0.096886
0.706708 -0.609876 0.358630
0.725456 -0.309117 0.614947
-0.574177 0.356622 0.736981
-0.330886 0.300884 0.894418
-0.756459 0.131916 0.640599
-0.880762 -0.226682 0.415780
-0.179531 0.242025 0.953516
0.145543 0.213665 0.966004
0.434603 -0.012704 0.900533
0.578957 -0.346069 0.738272
-0.147174 -0.982971 -0.110037
0.135287 -0.989377 -0.053198
0.461124 -0.885561 0.056096
-0.723015 -0.690752 0.010505
-0.374884 -0.911240 -0.170597
-0.192345 -0.976353 -0.098681
0.487159 -0.738418 0.466278
-0.663087 0.202080 0.720749
-0.421341 0.361998 0.831522
-0.947664 -0.069673 0.311575
-0.896955 -0.401038 -0.186122
-0.091893 0.464532 0.880776
0.490090 0.209878 0.846028
0.817550 -0.189365 0.543831
0.057652 -0.997899 -0.029576
0.277703 -0.944416 0.175954
-0.430022 -0.655687 -0.620609
0.149734 -0.840468 -0.520761
0.805859 -0.513081 0.295533
-0.720678 0.643725 0.257376
-0.969378 0.234888 0.071655
-0.043201 0.926581 0.373606
-0.961265 -0.056251 -0.269825
-0.700259 -0.195003 -0.686739
0.572210 0.719875 0.392881
0.961667 0.193115 0.194685
0.974209 -0.193007 0.116898
0.654379 -0.743833 -0.136018
0.000231 -0.451309 -0.892368
0.628216 -0.481259 -0.611338
0.949493 -0.305467 -0.071780
-0.145851 0.987155 -0.065211
-0.728869 0.673207 -0.124668
-0.951319 0.295108 -0.088898
-0.961381 0.179371 -0.208742
0.519013 0.854664 0.013260
-0.835227 0.069999 -0.545432
-0.404560 -0.090469 -0.910025
0.870007 0.487822 0.071541
0.975375 -0.121857 0.183832
0.982112 -0.169571 0.081867
0.945732 -0.284516 0.156977
0.439865 -0.374278 -0.816354
0.874965 -0.264979 -0.405243
-0.060893 0.949572 -0.307580
0.537617 0.841090 -0.059459
-0.380183 0.515798 -0.767732
-0.730638 0.302884 -0.611906
-0.632632 0.548764 -0.546475
-0.776521 0.314961 -0.545724
0.806706 0.528515 0.264381
-0.763865 0.243333 -0.597746
-0.255549 0.193753 -0.947182
0.912706 -0.033668 0.407228
0.946079 -0.197739 0.256581
0.921488 -0.250648 0.296708
0.860115 -0.175777 -0.478858
0.990518 -0.073659 0.115971
0.547978 -0.281675 -0.787641
0.164688 0.905633 -0.390778
0.432818 0.876742 0.209741
0.756380 0.345204 0.555629
0.428279 0.337594 -0.838217
0.196508 -0.127384 -0.972193
0.142483 0.327131 -0.934175
-0.264765 0.414281 -0.870787
-0.647359 0.318294 -0.692542
0.855553 -0.054539 0.514835
-0.539535 0.551969 -0.635792
-0.467636 0.645749 -0.603593
0.196620 0.296361 -0.934618
0.946419 -0.090577 0.309978
0.894906 -0.176264 0.409970
0.913786 -0.171753 0.368098
0.933599 -0.126200 0.335361
0.613672 -0.244079 -0.750888
0.521684 -0.163010 -0.837421
0.926475 -0.009818 -0.376229
0.237521 0.955442 0.175256
0.418938 0.358342 0.834315
0.664550 0.023498 0.746874
0.137739 0.899362 -0.414942
0.072919 0.129094 -0.988948
-0.194807 0.103127 -0.975405
-0.550872 0.087722 -0.829967
-0.719332 0.067204 -0.691408
-0.836378 0.378026 -0.396949
0.875704 -0.240341 0.418783
0.835206 -0.096955 0.541323
-0.621842 0.558521 -0.548969
-0.222881 0.249142 -0.942471
0.627229 -0.204259 -0.751573
0.982376 0.135850 0.128386
0.911286 0.040918 0.409737
0.860480 -0.099890 0.499596
0.985605 -0.003056 -0.169039
0.543883 -0.314258 -0.778096
0.345102 -0.140170 -0.928039
0.557485 -0.000953 -0.830186
-0.016684 0.672416 0.739985
-0.346658 0.904563 0.248179
0.250623 0.241522 0.937473
0.582226 0.190640 0.790361
-0.794510 0.576462 -0.190905
-0.878558 0.016084 -0.477366
-0.938318 -0.037333 -0.343752
-0.929345 -0.219192 -0.297106
-0.961480 -0.230717 -0.149418
-0.997214 0.021301 -0.071484
0.640973 -0.349335 0.683461
0.741145 -0.158922 0.652264
-0.689605 -0.208449 -0.693537
0.296046 -0.488756 -0.820655
0.552984 -0.436744 -0.709551
0.980419 0.168221 0.102373
0.894099 0.157254 0.419354
0.728210 -0.018430 0.685106
0.862087 0.069851 -0.501923
0.202459 -0.264249 -0.942965
0.412245 -0.058501 -0.909193
-0.082868 0.428138 0.899906
-0.522019 0.567756 0.636514
-0.871786 0.364987 0.326761
0.251348 0.206846 0.945536
-0.990566 0.077776 0.112823
-0.966066 -0.076525 0.246699
-0.913221 -0.267192 0.307630
-0.927941 -0.355117 0.113215
-0.933521 -0.313732 0.173524
-0.932024 -0.354171 -0.076771
-0.900257 -0.433552 -0.039627
0.259064 -0.403444 0.877564
0.337104 -0.336443 0.879299
-0.330357 -0.773500 -0.540890
0.121825 -0.699179 -0.704490
0.951214 0.176415 0.253119
0.904180 0.142975 -0.402512
0.780418 0.071036 0.621210
0.223175 -0.129637 0.966120
0.596928 0.005425 0.802276
0.387810 -0.031418 -0.921204
-0.144283 -0.309167 -0.939999
-0.322818 0.186343 0.927936
-0.677547 0.146675 0.720706
-0.829877 0.053923 0.555335
-0.164727 -0.298401 0.940118
-0.817085 -0.207138 0.538020
-0.869764 -0.437579 0.228113
-0.749019 -0.307494 0.586871
-0.679926 -0.330564 0.654544
-0.618373 -0.740612 -0.262885
-0.907803 -0.417885 -0.035583
-0.216310 -0.386230 0.896681
0.893157 0.168960 0.416801
0.896556 0.210096 -0.389932
0.361847 0.081016 -0.928710
-0.340820 -0.213472 0.915572
0.020722 -0.098689 0.994903
0.561636 0.058371 0.825322
-0.408990 -0.147235 -0.900583
-0.672134 -0.354247 -0.650189
-0.531189 -0.213584 0.819890
-0.631357 -0.285644 0.720969
-0.896757 -0.245071 -0.368466
-0.822669 -0.253891 0.508680
0.766772 0.149214 0.624336
0.958777 0.206553 -0.195145
0.107671 0.067321 -0.991905
-0.102720 -0.084595 0.991107
0.037034 -0.060121 0.997504
-0.827573 -0.182006 -0.531033
-0.866966 -0.260179 0.425061
0.663038 0.081306 0.744157
0.980104 0.190551 -0.055562
0.200263 0.114725 -0.973002
-0.813169 -0.112362 -0.571079
-0.165647 -0.149629 0.974768
-0.917077 -0.251846 0.309100
0.651453 0.008028 0.758647
0.985762 0.132194 -0.103915
0.230590 0.099625 -0.967938
-0.831552 -0.070904 -0.550902
-0.947629 -0.181463 0.262811
-0.293201 -0.156677 0.943125
0.674489 -0.015846 0.738115
0.960117 0.122492 -0.251338
0.103919 0.126513 -0.986507
-0.858622 -0.011463 -0.512481
-0.943966 -0.126919 0.304663
-0.323975 -0.142214 0.935316
0.694622 -0.041640 0.718168
0.964716 0.094431 -0.245777
0.133284 0.126939 -0.982915
-0.847722 0.019813 -0.530071
-0.930009 -0.088763 0.356659
-0.273328 -0.143887 0.951098
0.568713 -0.092715 0.817294
0.989318 0.037496 -0.140871
0.203006 0.148306 -0.967881
-0.786299 0.078151 -0.612884
-0.952218 -0.018988 0.304829
-0.307225 -0.101487 0.946210
0.029685 -0.087777 0.995698
0.813884 -0.065576 0.577315
0.970754 0.016702 -0.239496
0.323498 0.148454 -0.934511
-0.620309 0.120937 -0.774978
-0.987900 0.047387 -0.147672
-0.693128 -0.033588 0.720032
-0.079809 -0.053645 0.995366
0.730497 -0.080354 0.678172
0.991238 -0.011776 -0.131564
0.440450 0.163378 -0.882786
-0.638088 0.191800 -0.745692
-0.957516 0.088180 -0.274568
-0.826526 0.046376 0.560984
-0.105123 0.088624 0.990502
0.668166 0.003549 0.744004
0.984896 -0.031217 -0.170307
0.655447 0.165326 -0.736924
-0.526182 0.384298 -0.758583
-0.962664 0.168434 -0.211916
-0.940786 0.193792 0.278150
-0.603696 0.536008 0.590124
0.197926 0.241797 0.949926
0.874792 0.244276 0.418412
0.965569 0.140500 -0.218945
0.800542 0.161667 -0.577059
-0.029579 0.540891 -0.840572
-0.906211 0.367711 -0.208734
-0.926382 0.355536 -0.124140
-0.432913 0.790988 0.432347
0.128323 0.407512 0.904139
-0.632234 0.738795 -0.233372
0.412952 0.199877 0.888549
0.819577 0.179284 0.544197
0.980842 0.104924 -0.164133
0.979576 0.142384 -0.141977
0.822034 0.302923 -0.482180
0.720475 0.424904 -0.548063
0.142688 0.695410 -0.704305
-0.852438 0.514110 -0.095083
-0.798028 0.599380 -0.062415
-0.763295 0.632872 -0.129823
-0.393313 0.684931 0.613331
-0.517511 0.807998 -0.281642
0.042985 0.344261 0.937890
0.319129 0.040561 0.946843
-0.641808 0.600348 -0.477143
0.417315 -0.050677 0.907348
0.909884 -0.132893 0.393002
0.919299 -0.317031 -0.233198
0.955967 -0.275303 0.101667
0.996729 0.066583 -0.045813
0.824255 0.191117 -0.532990
0.734795 0.230154 -0.638048
0.704022 0.016597 -0.709985
0.363191 0.150699 -0.919447
-0.255564 0.696544 -0.670458
-0.608865 0.776567 -0.161949
-0.586503 0.798479 0.135814
-0.874673 0.483055 -0.040062
-0.680934 0.522324 0.513329
-0.361709 0.129398 0.923267
-0.779029 0.626735 0.017786
-0.561192 0.200691 -0.802986
-0.715720 0.437285 -0.544543
-0.058361 -0.212455 0.975427
0.229220 -0.276080 0.933402
-0.955854 -0.238729 -0.171322
0.267904 -0.217028 0.938683
0.405175 -0.183231 0.895689
0.824168 -0.528380 0.203867
0.736000 -0.619969 -0.271924
0.732861 -0.656691 0.177967
0.748786 -0.379931 0.543113
0.963385 -0.202814 -0.175372
0.784645 -0.022985 -0.619519
0.763106 0.031070 -0.645527
0.610860 -0.202051 -0.765523
0.256043 -0.121217 -0.959035
-0.274930 0.194311 -0.941624
-0.464580 0.744362 -0.479677
-0.257614 0.962470 -0.085358
-0.304962 0.869490 0.388569
-0.637838 0.389982 0.664137
-0.974788 0.213043 0.066334
-0.674651 0.042659 0.736903
-0.309275 -0.139096 0.940745
-0.917624 0.039633 -0.395469
-0.514602 -0.249746 -0.820251
-0.541898 -0.151019 -0.826764
-0.086289 -0.157910 0.983676
0.149837 -0.219660 0.964001
-0.563968 -0.074166 0.822459
-0.911206 -0.401939 0.090271
0.236271 -0.242893 0.940840
0.429267 -0.672291 0.603120
0.488615 -0.860537 -0.143988
0.364479 -0.906345 -0.213761
0.315225 -0.835102 0.450819
0.667571 -0.696629 0.262787
0.748279 -0.099234 -0.655921
0.682002 -0.136847 -0.718433
0.525115 -0.270636 -0.806852
0.242453 -0.255318 -0.935964
-0.180093 -0.022591 -0.983390
-0.695472 0.160330 -0.700437
-0.634308 0.762058 0.130080
-0.505313 0.342637 0.791997
-0.862147 -0.442858 -0.246129
-0.847730 -0.319270 0.423580
-0.557615 -0.405069 0.724558
-0.637459 -0.598751 -0.484916
-0.361615 -0.535886 -0.762929
-0.133630 -0.652197 0.746178
0.171069 -0.674443 0.718235
-0.629390 -0.236008 0.740384
-0.486903 -0.234281 0.841450
-0.445025 -0.492660 0.747822
-0.569909 -0.775635 0.271282
-0.388133 -0.792595 -0.470262
0.165249 -0.971204 0.171626
0.170678 -0.967746 -0.185303
-0.042601 -0.972351 0.229604
-0.069554 -0.922806 -0.378933
0.071385 -0.838464 0.540262
0.275390 -0.890944 0.361080
0.623353 -0.657996 -0.422459
0.560971 -0.126073 -0.818179
0.432441 -0.282113 -0.856392
0.238002 -0.273281 -0.932026
-0.131094 -0.181175 -0.974674
-0.769722 -0.385874 -0.508556
-0.981272 0.074660 0.177568
-0.418906 -0.783823 -0.458409
-0.605701 -0.767033 -0.211628
-0.426410 -0.904520 -0.004301
-0.164714 -0.827014 -0.537510
-0.092421 -0.994825 0.042214
-0.860731 -0.470662 0.193955
-0.553066 -0.561434 0.615556
-0.373460 -0.687907 0.622344
-0.284494 -0.697075 0.658141
-0.051092 -0.975455 -0.214192
-0.114000 -0.863752 0.490853
0.148059 -0.985985 0.076890
0.409762 -0.459286 -0.788132
0.031087 -0.471463 -0.881338
-0.519429 -0.630680 -0.576572
-0.710903 -0.702470 -0.033951
-0.249898 -0.920025 -0.301837
-0.519729 -0.807177 0.279903
-0.217718 -0.969229 0.114864
-0.024340 -0.900412 -0.434357
-0.382915 -0.901852 -0.200099
</DataArray>
         </PointData>
         <Points>
            <DataArray NumberOfComponents="3" format="ascii" type="Float32">	-0.002339 0.016191 -0.015885
0.002429 0.007639 -0.020343
-0.008201 0.013194 -0.017531
0.005156 0.016098 -0.015460
-0.001811 0.018831 -0.012466
0.010226 0.015968 -0.012063
-0.011581 0.006187 -0.019359
-0.008595 -0.002222 -0.021944
0.000160 -0.006617 -0.022521
0.008575 -0.000922 -0.021949
0.012972 0.004160 -0.017800
0.011293 0.012425 -0.015320
-0.008026 0.016422 -0.013817
-0.013964 0.010262 -0.015684
0.016589 0.010439 -0.011558
-0.002218 0.021279 -0.006616
0.007020 0.019707 -0.007040
0.014387 0.016084 -0.006226
-0.015267 0.001601 -0.018080
-0.010334 -0.005550 -0.020320
-0.000024 -0.009589 -0.021550
0.008856 -0.006782 -0.021079
0.014594 -0.003107 -0.017952
0.017432 0.001951 -0.015094
-0.009335 0.019131 -0.008070
-0.015431 0.013860 -0.010056
-0.018692 0.005618 -0.013121
0.019809 0.009748 -0.005384
-0.003091 0.022333 -0.000913
0.002984 0.022212 0.000285
0.009548 0.020121 0.000834
0.016774 0.015275 0.001346
-0.016447 -0.004513 -0.016586
-0.009378 -0.010641 -0.019047
0.000909 -0.012469 -0.020118
0.009981 -0.010572 -0.018801
0.017313 -0.005877 -0.014535
0.021776 0.001400 -0.008264
-0.010049 0.020224 -0.002340
-0.016672 0.015456 -0.004233
-0.021305 0.006575 -0.007404
-0.020655 -0.002339 -0.011340
0.023223 -0.000376 -0.005064
0.021296 0.009245 0.000380
-0.011534 0.019573 0.004066
-0.004890 0.021699 0.004754
0.001571 0.021783 0.006321
0.007855 0.019993 0.007731
0.016016 0.013602 0.009230
-0.015336 -0.010201 -0.014855
-0.007378 -0.014259 -0.017148
0.002382 -0.016431 -0.016980
0.013110 -0.012903 -0.014579
0.019470 -0.008678 -0.010268
-0.017658 0.014835 0.002150
-0.022348 0.006531 -0.001580
-0.022426 -0.003836 -0.005744
-0.017260 -0.011856 -0.010659
0.023126 -0.004275 0.001200
0.021016 0.005800 0.007670
-0.013474 0.016776 0.008657
-0.019926 0.011138 0.004916
-0.006009 0.019498 0.010573
0.001926 0.018907 0.012828
0.009252 0.015165 0.014809
0.014615 0.009723 0.015528
-0.008862 -0.016088 -0.014572
0.002181 -0.018307 -0.014946
0.013442 -0.015764 -0.010864
0.020985 -0.010178 -0.005180
-0.023309 0.001235 0.001453
-0.021874 -0.007902 -0.003172
-0.015616 -0.014530 -0.011056
-0.006109 -0.017964 -0.013759
0.020920 -0.004768 0.009651
0.019105 0.001940 0.013772
-0.006515 0.016848 0.014694
-0.013388 0.014752 0.012476
-0.019496 0.008892 0.009401
-0.000576 0.015616 0.017664
0.004209 0.013568 0.018875
0.008577 0.008386 0.020072
0.013956 -0.000266 0.019132
0.005670 -0.019334 -0.012204
0.014736 -0.017368 -0.004090
0.019951 -0.012451 0.002452
-0.023285 0.000691 0.005825
-0.022638 -0.006938 0.001250
-0.016365 -0.014119 -0.004738
-0.007715 -0.017656 -0.008836
0.017175 -0.015470 0.005989
0.016883 -0.007250 0.014843
-0.014230 0.010774 0.015375
-0.006961 0.012255 0.018482
-0.018796 0.004010 0.011971
-0.020445 -0.003674 0.009852
-0.000784 0.010052 0.021467
0.005508 0.005782 0.022066
0.008354 -0.001654 0.022127
0.011526 -0.009158 0.018170
0.000642 -0.019812 -0.008630
0.006694 -0.020495 -0.006464
0.013572 -0.018689 -0.000414
-0.017861 -0.012314 0.002382
-0.010679 -0.016619 -0.001890
-0.003255 -0.019150 -0.002904
0.012149 -0.015527 0.012449
-0.013377 -0.001320 0.016376
-0.006647 0.003833 0.018044
-0.017353 -0.009435 0.013196
-0.015176 -0.016759 0.007363
-0.001109 0.001528 0.020970
0.005021 -0.001968 0.023440
0.008043 -0.009208 0.020969
0.003371 -0.019532 -0.000935
0.009378 -0.018800 0.004383
-0.009471 -0.020685 0.004174
-0.000324 -0.021772 0.005527
0.008673 -0.015041 0.016143
-0.012538 -0.007294 0.025209
-0.016972 -0.015171 0.021052
-0.005184 -0.003017 0.027578
-0.015886 -0.021200 0.014921
-0.013671 -0.027250 0.011652
0.001757 -0.006295 0.030114
0.004794 -0.013941 0.029707
0.004510 -0.021205 0.027235
0.006887 -0.019438 0.010710
-0.008561 -0.030089 0.010061
-0.001567 -0.030786 0.013133
0.003378 -0.027943 0.022175
-0.007366 -0.003733 0.033999
-0.013239 -0.008802 0.030055
-0.017166 -0.017040 0.025563
-0.018076 -0.025050 0.021544
-0.001462 -0.005830 0.037316
-0.016300 -0.033203 0.014592
-0.013667 -0.035655 0.011941
0.003450 -0.010204 0.038291
0.005817 -0.016333 0.038342
0.002189 -0.031923 0.030868
0.003346 -0.022341 0.035716
-0.003878 -0.038957 0.015804
0.001854 -0.037872 0.022175
-0.008279 -0.002416 0.040504
-0.002742 -0.003800 0.042824
-0.015938 -0.006972 0.037203
-0.017784 -0.015026 0.036939
-0.019631 -0.023582 0.031435
-0.020951 -0.033038 0.023049
0.001577 -0.007378 0.045058
-0.019075 -0.040087 0.017568
-0.017025 -0.044475 0.012743
0.002717 -0.012435 0.046007
0.000235 -0.028321 0.039091
0.001023 -0.019270 0.043983
0.000735 -0.045321 0.023285
0.000971 -0.037433 0.032310
-0.008140 -0.046104 0.016516
-0.011751 -0.000492 0.045296
-0.005928 -0.000736 0.049671
-0.002080 -0.006967 0.051357
-0.023684 -0.001653 0.034624
-0.025172 -0.010863 0.038672
-0.026085 -0.020274 0.037283
-0.027438 -0.027369 0.031288
-0.025744 -0.035128 0.027543
-0.001542 -0.016436 0.050974
-0.023159 -0.043134 0.020944
-0.021705 -0.047534 0.016243
-0.019705 -0.050423 0.010004
-0.002362 -0.033050 0.044401
-0.002924 -0.025856 0.048052
0.001095 -0.047432 0.033210
-0.000800 -0.040093 0.038618
-0.014533 -0.052377 0.015406
-0.003688 -0.053509 0.021048
0.001832 -0.051198 0.026717
-0.011947 0.000491 0.049883
-0.005145 -0.008766 0.054488
-0.003998 -0.018882 0.053425
-0.023879 0.001549 0.036703
-0.030708 -0.002220 0.031462
-0.032640 -0.016415 0.034732
-0.032824 -0.027221 0.032130
-0.031088 -0.037547 0.030485
-0.028345 -0.045132 0.023463
-0.005069 -0.036401 0.049053
-0.004422 -0.028721 0.053474
-0.028382 -0.050216 0.013612
-0.025204 -0.053540 0.008377
-0.019510 -0.055752 0.009492
0.001832 -0.053759 0.032191
-0.000515 -0.049793 0.039023
-0.003050 -0.043219 0.044852
0.001826 -0.056540 0.025977
-0.016352 -0.056959 0.015788
-0.009287 -0.058023 0.019869
-0.003462 -0.058502 0.021674
-0.015552 -0.001387 0.053421
-0.026693 0.001159 0.042873
-0.011137 -0.010567 0.057187
-0.009332 -0.019811 0.058568
-0.034316 -0.001084 0.035304
-0.036314 -0.017330 0.036622
-0.037255 -0.026738 0.036885
-0.035901 -0.036158 0.036878
-0.028992 -0.047164 0.031126
-0.030338 -0.053673 0.016807
-0.009185 -0.037844 0.053878
-0.007837 -0.029952 0.058534
-0.027138 -0.056869 0.010099
-0.020746 -0.059497 0.010575
-0.016196 -0.061085 0.018265
0.002590 -0.059839 0.034101
-0.001165 -0.054398 0.042958
-0.006758 -0.048599 0.049122
0.003389 -0.062645 0.027971
-0.009012 -0.063695 0.020666
-0.001165 -0.064295 0.022642
-0.018615 -0.005885 0.055279
-0.031591 -0.003607 0.048260
-0.035781 -0.007226 0.041665
-0.014205 -0.017949 0.061950
-0.036750 -0.015320 0.043039
-0.036430 -0.026180 0.044979
-0.034223 -0.034846 0.044857
-0.029872 -0.051662 0.039321
-0.025821 -0.058818 0.028082
-0.024492 -0.061913 0.035630
-0.029486 -0.060477 0.017885
-0.013939 -0.039308 0.055526
-0.011538 -0.029236 0.061969
-0.025645 -0.062080 0.011991
-0.017195 -0.066035 0.020677
0.003208 -0.067123 0.037862
0.004080 -0.069115 0.027916
-0.002270 -0.065428 0.045442
-0.011845 -0.047720 0.053175
-0.006452 -0.064305 0.049927
-0.002423 -0.070225 0.022413
-0.010785 -0.068711 0.021361
-0.020733 -0.018724 0.060686
-0.029541 -0.017141 0.056305
-0.033665 -0.019172 0.051058
-0.018661 -0.032112 0.060331
-0.032351 -0.028542 0.052485
-0.024780 -0.063161 0.043172
-0.026961 -0.055036 0.046130
-0.029615 -0.041656 0.049355
-0.022807 -0.066043 0.025178
-0.020417 -0.073238 0.037131
-0.020326 -0.042749 0.053907
0.007530 -0.083307 0.035890
0.007478 -0.083295 0.028462
0.001392 -0.084479 0.023385
-0.018528 -0.052927 0.051603
-0.012536 -0.065258 0.051586
-0.000625 -0.083262 0.045940
-0.007558 -0.085143 0.024151
-0.010697 -0.076390 0.024114
-0.025947 -0.031212 0.057730
-0.020160 -0.064327 0.048382
-0.013819 -0.088356 0.031764
-0.014952 -0.086195 0.046622
0.010114 -0.114628 0.042491
0.013271 -0.107196 0.030724
0.007026 -0.112877 0.021324
-0.008792 -0.085345 0.050748
-0.002258 -0.115416 0.048803
-0.006150 -0.114687 0.028333
-0.008187 -0.116928 0.045340
0.016040 -0.145628 0.042394
0.021337 -0.143170 0.031170
0.013168 -0.143373 0.018203
0.001978 -0.146498 0.025162
0.006476 -0.147721 0.045117
-0.000297 -0.148982 0.039380
0.022142 -0.178242 0.039909
0.026549 -0.175353 0.029434
0.018533 -0.174988 0.016216
0.006830 -0.175055 0.022738
0.005514 -0.177458 0.034590
0.011632 -0.176818 0.042095
0.025133 -0.206207 0.037095
0.029213 -0.204230 0.023042
0.018544 -0.204424 0.014185
0.010152 -0.206695 0.020005
0.009320 -0.207993 0.031667
0.015288 -0.207853 0.038787
0.028695 -0.241572 0.032603
0.031948 -0.239745 0.019854
0.022380 -0.238778 0.010358
0.012638 -0.239257 0.015469
0.011561 -0.242330 0.027295
0.018931 -0.242461 0.034824
0.031055 -0.274455 0.027225
0.033816 -0.272809 0.016395
0.024144 -0.270655 0.006295
0.013192 -0.272377 0.011760
0.012757 -0.274980 0.024953
0.020498 -0.276294 0.030433
0.020816 -0.306972 0.027054
0.028432 -0.306628 0.025354
0.033323 -0.304967 0.011040
0.026657 -0.303604 0.001856
0.017146 -0.303482 0.004331
0.011041 -0.304792 0.012926
0.013013 -0.306837 0.023665
0.018914 -0.340093 0.024470
0.029742 -0.340427 0.022001
0.032986 -0.341104 0.007915
0.024993 -0.338361 -0.004046
0.015411 -0.336979 -0.001471
0.010548 -0.337730 0.008591
0.009977 -0.339127 0.020273
0.016238 -0.366989 0.024285
0.030470 -0.369833 0.018608
0.029951 -0.368137 0.002303
0.025328 -0.365096 -0.008204
0.014535 -0.362323 -0.010064
0.008446 -0.367507 0.006213
0.006980 -0.366621 0.020519
0.002655 -0.379981 0.023009
0.015523 -0.381394 0.025617
0.029925 -0.386391 0.020785
0.029547 -0.384766 -0.000447
0.022030 -0.377881 -0.013768
0.012115 -0.375266 -0.018196
0.008116 -0.377884 -0.009247
0.006616 -0.380674 0.003266
-0.002897 -0.386977 0.028552
0.011980 -0.394159 0.031420
-0.000454 -0.386982 0.014488
0.022959 -0.397253 0.028606
0.035306 -0.397072 0.021105
0.032968 -0.395633 0.008448
0.031145 -0.395746 -0.001877
0.027072 -0.390989 -0.013137
0.020784 -0.387953 -0.020689
0.006791 -0.387902 -0.033406
0.011160 -0.382117 -0.023459
0.004383 -0.386023 -0.013469
0.003587 -0.387849 0.000222
-0.009434 -0.391673 0.029127
-0.009795 -0.390173 0.014384
0.002353 -0.398568 0.036067
0.010398 -0.402182 0.034107
-0.006731 -0.392187 0.009106
0.021525 -0.404413 0.029318
0.035446 -0.405787 0.021325
0.032663 -0.405177 0.008789
0.030062 -0.406264 -0.000232
0.032818 -0.405157 -0.007829
0.025956 -0.399818 -0.018001
0.019136 -0.394624 -0.027519
0.017446 -0.402156 -0.030315
0.011730 -0.397800 -0.036877
0.002937 -0.393959 -0.037526
-0.000852 -0.391272 -0.025995
-0.001801 -0.392515 -0.016571
-0.002039 -0.394480 -0.001938
-0.016769 -0.397147 0.027677
-0.009767 -0.402873 0.035207
-0.017997 -0.395692 0.022044
-0.011068 -0.400730 0.006348
-0.016787 -0.397566 0.012051
-0.002143 -0.406302 0.037033
0.007871 -0.408459 0.034121
-0.002281 -0.400084 -0.001555
0.017481 -0.411851 0.029677
0.024589 -0.413262 0.027714
0.031195 -0.414066 0.022521
0.029754 -0.413497 0.010670
0.025460 -0.412837 0.000033
0.029709 -0.413635 -0.006108
0.033345 -0.414184 -0.010227
0.029794 -0.410377 -0.016316
0.024650 -0.407569 -0.021375
0.015140 -0.409293 -0.030919
0.006830 -0.402541 -0.038298
-0.007303 -0.397547 -0.036054
-0.015521 -0.394175 -0.027941
-0.003647 -0.393526 -0.028425
-0.010118 -0.392991 -0.018940
-0.008083 -0.398395 -0.013016
-0.022408 -0.404588 0.023297
-0.021165 -0.406397 0.029793
-0.012553 -0.410420 0.030597
-0.020512 -0.405620 0.013998
-0.002882 -0.408422 0.006231
-0.016366 -0.408881 0.008787
-0.006449 -0.413673 0.032330
0.003243 -0.416680 0.031912
-0.001044 -0.408861 -0.009405
0.004058 -0.410535 -0.001843
0.016771 -0.417675 0.028481
0.023161 -0.421217 0.025633
0.022884 -0.421138 0.014379
0.019261 -0.417790 0.004385
0.020794 -0.418748 -0.004095
0.029071 -0.420928 -0.011581
0.027465 -0.417050 -0.018789
0.021598 -0.413145 -0.022962
0.012713 -0.414202 -0.031252
0.002472 -0.411800 -0.036440
-0.007632 -0.409205 -0.036730
-0.020658 -0.408592 -0.033736
-0.017667 -0.395899 -0.020933
-0.016816 -0.403420 -0.013198
-0.021820 -0.410716 0.019655
-0.021244 -0.413129 0.028080
-0.015779 -0.417373 0.031837
-0.014973 -0.415510 0.012463
-0.005442 -0.416331 0.007583
-0.007523 -0.422437 0.032296
0.005837 -0.423079 0.029917
-0.018287 -0.409922 -0.014403
-0.013221 -0.415616 -0.014291
-0.004487 -0.422012 -0.013927
0.007255 -0.416320 -0.001125
0.007211 -0.417681 0.005644
0.013777 -0.423537 0.025725
0.014433 -0.424549 0.017703
0.013143 -0.418346 -0.000209
0.012486 -0.421127 0.009177
0.014155 -0.421520 -0.005391
0.019347 -0.425500 -0.012975
0.022154 -0.425019 -0.022274
0.017173 -0.418753 -0.025937
0.009566 -0.420713 -0.029919
0.003233 -0.417783 -0.034554
-0.007621 -0.415450 -0.036092
-0.018097 -0.414535 -0.033884
-0.022322 -0.403616 -0.021101
-0.009423 -0.419038 0.012840
-0.014324 -0.419420 0.018578
-0.011563 -0.421864 0.024560
0.001318 -0.420799 0.010887
-0.000728 -0.424582 0.023307
-0.020977 -0.415899 -0.023124
-0.014416 -0.420856 -0.018401
-0.003730 -0.426432 -0.016147
0.006343 -0.421611 -0.007606
0.006280 -0.424557 0.017171
0.004537 -0.429129 -0.015807
0.009081 -0.430285 -0.021312
0.011900 -0.427962 -0.028185
-0.004435 -0.425101 -0.034302
-0.013769 -0.422733 -0.031571
-0.015841 -0.422242 -0.024399
-0.004460 -0.422900 0.017036
-0.008972 -0.426934 -0.021198
-0.001631 -0.429478 -0.020925
0.001302 -0.428160 -0.031677
-0.008172 -0.427189 -0.027455
</DataArray>
         </Points>
         <Polys>
            <DataArray Name="connectivity" format="ascii" type="Int32">