<?xml version="1.0" encoding="utf-8"?>
<VTKFile byte_order="LittleEndian" compressor="vtkZLibDataCompressor" type="PolyData"
         version="0.1">
   <PolyData>
      <Piece NumberOfLines="0" NumberOfPoints="1000" NumberOfPolys="1455" NumberOfStrips="0"
             NumberOfVerts="0">
         <PointData Normals="Normals">
            <DataArray Name="Normals" NumberOfComponents="3" format="ascii" type="Float32">
0.905291 -0.323988 -0.274736
0.874738 -0.332619 0.352418
0.378240 -0.189193 0.906168
-0.460246 0.100900 0.882039
-0.568383 0.133419 0.811875
-0.066189 -0.074902 0.994992
0.230062 -0.128622 0.964639
0.243072 -0.040871 0.969147
-0.193847 0.181678 0.964062
-0.763966 0.459927 0.452574
-0.914402 0.404782 -0.004512
-0.860267 0.381632 0.338079
-0.828886 0.479954 0.287388
0.931293 0.314752 0.183372
0.562358 0.586687 0.582711
-0.419333 0.670518 0.612017
-0.551356 0.594702 0.585094
0.170272 0.628972 0.758553
0.397693 0.640992 0.656483
0.438052 0.692496 0.573201
0.120771 0.793628 0.596296
-0.548332 0.663863 0.508545
-0.938429 0.080286 0.336014
-0.906157 0.110467 0.408261
0.886558 0.462215 -0.019314
0.571129 0.802587 0.172238
-0.503358 0.831467 0.235146
-0.618850 0.741774 0.258448
0.251683 0.919162 0.302979
0.410476 0.886988 0.211570
0.445698 0.882453 0.150435
0.215663 0.958393 0.187011
-0.378097 0.887568 0.263184
-0.930627 0.179187 0.319102
-0.938039 0.125646 0.322949
0.888758 0.407405 -0.210073
0.615081 0.760521 -0.208049
-0.190333 0.937737 -0.290555
-0.322639 0.927438 -0.189113
0.218207 0.937237 -0.271980
0.286044 0.839189 -0.462537
0.392710 0.799722 -0.454118
0.285241 0.883033 -0.372679
-0.325567 0.899472 -0.291473
-0.841636 0.538810 -0.036497
-0.835430 0.515416 0.190795
0.881416 0.232116 -0.411374
0.669802 0.501491 -0.547605
0.171975 0.642081 -0.747099
0.066356 0.729347 -0.680918
0.017147 0.536029 -0.844025
-0.150604 0.145710 -0.977797
0.131080 0.164674 -0.977599
0.349370 0.352760 -0.868044
-0.019621 0.547046 -0.836873
-0.426826 0.733602 -0.528817
-0.625116 0.779894 -0.031557
0.790952 -0.236259 -0.564426
0.557675 -0.108480 -0.822940
0.071156 0.097724 -0.992667
-0.107856 0.153686 -0.982216
-0.187498 0.016688 -0.982123
-0.169547 0.034583 -0.984915
0.128239 0.124905 -0.983846
0.319398 0.184350 -0.929516
0.086863 0.407685 -0.908982
-0.367376 0.621820 -0.691646
-0.753474 0.622097 -0.212771
0.525302 -0.678472 -0.513550
0.192024 -0.695857 -0.692033
-0.341712 -0.396043 -0.852281
-0.565635 -0.346090 -0.748518
-0.330722 -0.455585 -0.826477
-0.016698 -0.132687 -0.991017
0.193723 0.003405 -0.981050
0.147312 -0.067844 -0.986761
-0.245043 0.176740 -0.953267
-0.751929 0.506621 -0.421828
-0.887131 0.458818 0.049853
0.439203 -0.847344 -0.298510
0.051664 -0.938653 -0.340971
-0.590677 -0.722005 -0.360291
-0.767227 -0.584307 -0.264476
-0.410889 -0.853945 -0.319295
-0.110951 -0.864111 -0.490920
0.090576 -0.808102 -0.582036
-0.035889 -0.816123 -0.576763
-0.713817 -0.468018 -0.520984
-0.959758 0.280080 -0.020497
-0.879393 0.436670 0.189702
0.407623 -0.904793 -0.123265
0.004878 -0.999129 0.041439
-0.616439 -0.761778 0.199242
-0.753807 -0.617605 0.224363
-0.398358 -0.905469 0.146412
-0.123787 -0.987033 0.102191
0.032788 -0.990941 0.130235
-0.156512 -0.961769 0.224731
-0.846694 -0.429103 0.314612
-0.877720 0.424293 0.222675
-0.824416 0.494457 0.275411
0.512822 -0.853296 0.094339
0.056900 -0.872486 0.485314
-0.579978 -0.511452 0.634068
-0.680288 -0.394919 0.617452
-0.307249 -0.722897 0.618885
-0.031720 -0.814473 0.579334
0.029728 -0.764339 0.644129
-0.312003 -0.566465 0.762739
-0.874964 0.204044 0.439095
-0.729285 0.683343 0.034432
-0.751027 0.557931 0.353089
0.671080 -0.715857 0.192873
0.497614 -0.420428 0.758697
0.009850 0.037000 0.999267
-0.236681 0.078197 0.968435
-0.280168 -0.016678 0.959806
-0.018934 -0.049717 0.998584
0.059704 0.121624 0.990779
0.107286 0.258956 0.959912
0.083660 0.183738 0.979409
-0.207675 0.287074 0.935125
-0.794946 0.602372 0.072177
-0.655249 0.327378 -0.680788
-0.881573 0.440132 -0.170624
0.627035 -0.265929 0.732194
0.271246 0.605120 0.748502
0.093224 0.549087 0.830550
0.112509 0.571440 0.812895
0.044572 0.211511 0.976359
0.229077 0.615288 0.754284
0.349431 0.900814 0.257744
0.271084 0.525806 0.806251
0.167355 0.644249 0.746281
0.065653 0.893983 0.443265
-0.284922 0.953993 -0.093366
0.902367 -0.095723 0.420203
0.421541 0.862146 0.281082
0.390298 0.826791 0.405073
0.427836 0.893923 0.133633
0.378937 0.912894 0.151765
0.412647 0.894558 0.171723
0.355040 0.933840 -0.043473
0.477584 0.806634 0.348217
0.385947 0.855422 0.345396
0.387025 0.827367 0.407033
-0.102101 0.955774 0.275810
0.980940 -0.101121 -0.165927
0.432629 0.817960 -0.379176
0.486915 0.797415 -0.356430
0.433410 0.836527 -0.335230
0.312536 0.850839 -0.422368
0.434424 0.822681 -0.366705
0.385515 0.878787 -0.281268
0.550138 0.797403 -0.247984
0.532985 0.839119 -0.108656
0.470600 0.877061 -0.096438
-0.083704 0.992472 -0.089400
0.826913 -0.335591 -0.451214
0.165550 0.310654 -0.935995
0.292021 0.288792 -0.911769
0.292088 0.357525 -0.887052
0.011010 0.294664 -0.955537
0.217429 0.246706 -0.944384
0.314743 0.418733 -0.851821
0.462444 0.445260 -0.766740
0.669235 0.543056 -0.507164
0.504641 0.694598 -0.512709
-0.268693 0.879180 -0.393506
0.698056 -0.525978 -0.485865
0.148644 0.123945 -0.981093
0.112337 0.099824 -0.988643
0.058605 0.085686 -0.994597
-0.087313 0.046662 -0.995088
0.024753 -0.176012 -0.984077
0.165160 -0.024790 -0.985955
0.374567 0.158383 -0.913572
0.544340 0.151490 -0.825073
0.237556 0.221202 -0.945852
-0.647183 0.420778 -0.635689
0.582859 -0.721479 -0.373822
0.182127 -0.149079 -0.971908
-0.134454 0.040676 -0.990085
-0.240801 -0.005198 -0.970561
-0.171122 -0.163206 -0.971638
-0.121562 -0.496632 -0.859406
0.051357 -0.442991 -0.895054
0.324301 -0.230629 -0.917409
0.227410 -0.284964 -0.931171
-0.408239 -0.203953 -0.889800
-0.932334 0.009116 -0.361484
0.459654 -0.876254 -0.144561
-0.130254 -0.840934 -0.525227
-0.657689 -0.440323 -0.611197
-0.727936 -0.376831 -0.572806
-0.501132 -0.685778 -0.527802
-0.332883 -0.861741 -0.382872
-0.141921 -0.904080 -0.403109
0.139183 -0.869633 -0.473674
-0.086055 -0.858491 -0.505557
-0.814332 -0.455530 -0.359661
-0.993598 -0.031836 -0.108399
0.403253 -0.889088 0.216584
-0.286710 -0.913940 0.287246
-0.724345 -0.670689 0.159687
-0.748258 -0.662770 0.029072
-0.509924 -0.860217 0.001938
-0.381115 -0.917497 0.113801
-0.206038 -0.915534 0.345465
0.064250 -0.857723 0.510082
-0.257719 -0.846773 0.465357
-0.915028 -0.402902 0.019829
-0.978173 0.008212 -0.207631
0.420616 -0.673069 0.608325
-0.211392 -0.541011 0.814015
-0.539228 -0.520534 0.662026
-0.582888 -0.620979 0.524048
-0.274495 -0.673203 0.686622
-0.228400 -0.643707 0.730394
-0.125142 -0.522670 0.843300
0.059527 -0.205337 0.976879
-0.344939 -0.212591 0.914233
-0.962119 -0.252076 0.103849
-0.871690 -0.141401 -0.469215
0.762775 -0.642859 0.070049
0.617129 -0.506162 0.602455
0.103588 -0.021217 0.994394
0.038468 -0.140056 0.989396
-0.057237 -0.323380 0.944537
-0.180456 0.183047 0.966400
-0.061802 0.206794 0.976431
0.023026 -0.017360 0.999584
0.039320 0.057500 0.997571
-0.022938 0.068061 0.997417
-0.235536 0.094866 0.967225
-0.902569 0.370927 0.218594
-0.862212 0.378756 -0.336355
0.862388 -0.155062 0.481915
0.367027 0.269798 0.890225
0.288513 0.351179 0.890749
0.256260 0.493187 0.831323
-0.007884 0.473825 0.880584
-0.030121 0.142364 0.989356
0.128032 0.335683 0.933233
0.257932 0.441361 0.859460
0.169430 0.376554 0.910769
-0.113903 0.661529 0.741219
-0.660254 0.749053 0.054628
0.973053 0.017384 0.229925
0.639480 0.647159 0.415031
0.507318 0.756938 0.411915
0.419258 0.834602 0.357299
0.250390 0.893148 0.373619
0.342530 0.795930 0.499168
0.366953 0.825101 0.429597
0.476810 0.793061 0.379087
0.432872 0.795327 0.424355
0.020335 0.959661 0.280425
-0.652031 0.757187 -0.039031
0.998412 0.044226 -0.034890
0.714726 0.663111 -0.222375
0.580161 0.767927 -0.271480
0.449089 0.835639 -0.316269
0.283678 0.880692 -0.379353
0.456289 0.815549 -0.355922
0.485471 0.845602 -0.221982
0.537420 0.821467 -0.190714
0.485349 0.834574 -0.260619
0.105102 0.945749 -0.307430
-0.651555 0.695963 -0.301846
0.966352 -0.087264 -0.241968
0.617811 0.312987 -0.721352
0.442163 0.378469 -0.813175
0.221133 0.414920 -0.882577
-0.004024 0.298172 -0.954504
0.252531 0.233227 -0.939060
0.465349 0.489029 -0.737768
0.416591 0.539845 -0.731450
0.254441 0.479736 -0.839710
0.078363 0.551410 -0.830546
-0.568025 0.449558 -0.689380
0.749708 -0.504384 -0.428409
0.383643 -0.026203 -0.923110
0.104381 0.068389 -0.992183
-0.086889 0.038410 -0.995477
-0.150727 -0.116154 -0.981728
0.039440 -0.246677 -0.968295
0.313009 -0.070757 -0.947111
0.315315 0.043773 -0.947977
0.140319 0.136107 -0.980707
-0.130903 0.324917 -0.936639
-0.624304 0.428286 -0.653312
0.388629 -0.824114 -0.412072
0.065699 -0.368798 -0.927185
-0.323562 -0.089955 -0.941921
-0.398240 -0.195394 -0.896229
-0.247994 -0.450785 -0.857492
-0.095233 -0.622814 -0.776552
0.135750 -0.625218 -0.768553
0.293302 -0.505560 -0.811408
0.116535 -0.283009 -0.952011
-0.481922 0.233218 -0.844607
-0.727337 0.535633 -0.429044
0.273538 -0.941979 -0.194559
-0.286383 -0.830656 -0.477489
-0.745753 -0.426827 -0.511539
-0.725043 -0.517311 -0.454645
-0.443939 -0.823161 -0.354009
-0.257827 -0.920791 -0.292694
-0.020255 -0.951675 -0.306439
0.129263 -0.931901 -0.338899
-0.146903 -0.872812 -0.465423
-0.877591 -0.095680 -0.469766
-0.843260 0.499698 -0.198028
0.240147 -0.959809 0.145241
-0.366599 -0.861549 0.351196
-0.723996 -0.649007 0.233707
-0.657108 -0.753359 0.025673
-0.508493 -0.849764 0.139053
-0.363794 -0.866076 0.342880
-0.140374 -0.930799 0.337504
-0.036024 -0.933706 0.356225
-0.303210 -0.866609 0.396298
-0.902780 -0.390022 0.181304
-0.959649 0.249405 -0.129888
0.331553 -0.828981 0.450404
-0.132492 -0.375550 0.917283
-0.339391 -0.547707 0.764742
-0.389064 -0.832961 0.393453
-0.495746 -0.513532 0.700372
-0.167370 -0.016309 0.985759
-0.065501 -0.402897 0.912898
-0.076585 -0.415450 0.906386
-0.184328 -0.291338 0.938693
-0.569384 -0.367959 0.735125
-0.999605 -0.017153 -0.022274
0.941621 -0.251048 0.224333
0.528266 -0.233266 0.816408
-0.265844 0.042693 0.963070
-0.498231 0.060374 0.864940
-0.441479 -0.109286 0.890591
-0.396886 -0.189915 0.898006
-0.105890 -0.166096 0.980408
-0.044242 0.038041 0.998296
0.041886 0.169731 0.984600
-0.005692 0.249234 0.968426
-0.458873 0.368896 0.808302
-0.963614 0.243580 -0.110078
-0.855814 -0.049616 -0.514899
0.633346 -0.085474 0.769134
-0.007202 0.457927 0.888961
-0.208933 0.440379 0.873163
-0.236334 0.172921 0.956161
-0.292197 -0.034146 0.955748
-0.012843 0.176414 0.984232
0.062985 0.438521 0.896511
0.086043 0.557040 0.826017
0.041056 0.634377 0.771933
-0.357077 0.804253 0.475051
-0.656448 0.645069 -0.391103
0.874005 0.190122 0.447179
0.265475 0.866029 0.423694
0.096453 0.901957 0.420917
0.072344 0.857072 0.510093
0.045170 0.818403 0.572866
0.284959 0.805428 0.519696
0.271364 0.864048 0.424007
0.239422 0.900331 0.363430
0.172287 0.933638 0.314065
-0.258004 0.963163 0.075837
-0.773348 0.535129 -0.339955
0.978607 0.172099 -0.112742
0.375900 0.848674 -0.372091
0.142442 0.878061 -0.456858
0.207404 0.846907 -0.489625
0.294384 0.877662 -0.378217
0.437883 0.837124 -0.327844
0.409213 0.851202 -0.328632
0.377582 0.881227 -0.284379
0.330530 0.909394 -0.252493
-0.135934 0.913852 -0.382617
-0.815303 0.354519 -0.457818
0.864161 -0.137552 -0.484051
0.226406 0.331874 -0.915751
-0.157224 0.256599 -0.953645
-0.012604 0.103127 -0.994588
0.299566 0.323117 -0.897695
0.352251 0.373349 -0.858213
0.363390 0.390265 -0.845956
0.394414 0.497518 -0.772602
0.385155 0.555638 -0.736832
-0.027969 0.517404 -0.855284
-0.680721 0.109911 -0.724251
0.803256 -0.229641 -0.549586
0.236002 0.012166 -0.971677
-0.137549 0.090947 -0.986311
-0.186830 -0.188920 -0.964056
0.060244 -0.307546 -0.949624
0.203405 -0.138933 -0.969187
0.328138 0.045693 -0.943524
0.383088 0.178356 -0.906329
0.351967 0.241016 -0.904450
0.006021 0.275567 -0.961263
-0.637111 0.124678 -0.760621
0.823313 -0.298859 -0.482534
0.334368 -0.332943 -0.881673
-0.015183 -0.084091 -0.996342
-0.400789 -0.322272 -0.857618
-0.302633 -0.761309 -0.573430
0.016271 -0.652979 -0.757201
0.313712 -0.351035 -0.882247
0.365521 -0.251497 -0.896183
0.292862 -0.186316 -0.937826
-0.126610 -0.064515 -0.989852
-0.727856 0.040033 -0.684561
0.776033 -0.609593 -0.161771
0.184703 -0.897411 -0.400671
-0.316858 -0.755724 -0.573133
-0.672806 -0.632117 -0.384395
-0.467133 -0.869059 -0.162858
-0.166193 -0.949164 -0.267335
0.144808 -0.906369 -0.396895
0.192793 -0.884361 -0.425132
0.072151 -0.873262 -0.481880
-0.473326 -0.689462 -0.548274
-0.902914 -0.214954 -0.372212
0.648379 -0.626687 0.432283
-0.074261 -0.920863 0.382750
-0.572120 -0.768501 0.286507
-0.765062 -0.608771 0.209948
-0.550939 -0.760872 0.342840
-0.247520 -0.900748 0.356912
-0.050465 -0.910556 0.410294
0.005494 -0.886342 0.462999
-0.129811 -0.878309 0.460133
-0.660186 -0.694555 0.285916
-0.943229 -0.307120 -0.126476
0.547806 -0.349484 0.760111
-0.297213 -0.434284 0.850330
-0.631991 -0.305208 0.712345
-0.641973 -0.254039 0.723419
-0.463228 -0.215677 0.859595
-0.167247 -0.430509 0.886956
-0.096245 -0.395597 0.913368
0.004246 -0.296001 0.955178
-0.087037 -0.238455 0.967246
-0.605368 -0.179692 0.775397
-0.935050 -0.354373 -0.010070
0.787402 -0.494067 0.368640
0.453114 -0.263100 0.851743
-0.049308 0.109442 0.992769
-0.283540 0.199250 0.938032
-0.231801 0.013802 0.972665
-0.178449 0.193215 0.964792
-0.204561 0.272668 0.940110
-0.059808 0.055121 0.996687
-0.052189 0.206306 0.977095
-0.478169 0.497619 0.723692
-0.399053 0.409584 -0.820364
-0.241640 0.320531 -0.915898
-0.481708 0.556459 -0.676986
0.671333 0.202090 0.713072
0.320137 0.548871 0.772174
0.113828 0.477668 0.871135
-0.039472 0.561326 0.826653
-0.094561 0.564815 0.819782
-0.063900 0.399462 0.914520
0.043136 0.358066 0.932699
0.134049 0.567960 0.812067
0.020390 0.711637 0.702251
-0.102716 0.947870 0.301647
-0.183857 0.824780 -0.534729
0.837869 0.378210 0.393616
0.541745 0.765141 0.347952
0.425551 0.805325 0.412745
0.169263 0.919655 0.354379
0.101226 0.943397 0.315841
0.213162 0.885503 0.412851
0.300709 0.817048 0.491942
0.360642 0.840985 0.403339
0.247628 0.897844 0.364082
0.098063 0.960735 0.259562
-0.244213 0.951394 -0.187640
0.888289 0.438133 0.137777
0.588736 0.796023 -0.140488
0.496912 0.822926 -0.275449
0.352952 0.911121 -0.212799
0.275954 0.956889 -0.090621
0.349930 0.884356 -0.308972
0.410196 0.772726 -0.484390
0.450307 0.820423 -0.352320
0.406799 0.873601 -0.267088
0.263955 0.930438 -0.254190
-0.243158 0.873241 -0.422284
0.945008 0.321174 -0.061699
0.484880 0.540336 -0.687698
0.234395 0.382332 -0.893802
0.483241 0.647132 -0.589659
0.488914 0.816986 -0.305771
0.299419 0.313877 -0.901016
0.053366 -0.241457 -0.968943
0.283529 0.190092 -0.939934
0.444056 0.457807 -0.770212
0.365178 0.588191 -0.721579
-0.126259 0.474892 -0.870940
0.876783 -0.404064 -0.260737
0.392097 -0.050566 -0.918533
0.068938 0.123517 -0.989945
0.314698 0.096461 -0.944278
0.478913 -0.065691 -0.875401
0.087924 -0.443912 -0.891746
0.052797 -0.489689 -0.870297
0.259038 -0.032789 -0.965310
0.344953 0.230409 -0.909901
0.236055 0.322166 -0.916781
-0.100439 0.436061 -0.894295
0.436997 -0.895103 -0.088453
0.332457 -0.650652 -0.682733
0.062365 -0.100145 -0.993016
-0.090088 -0.039534 -0.995149
-0.171117 -0.663112 -0.728698
-0.094282 -0.865742 -0.491530
0.164978 -0.793505 -0.585775
0.359162 -0.413591 -0.836627
0.170773 -0.016320 -0.985175
-0.075184 0.489822 -0.868575
-0.248296 0.773817 -0.582715
0.338351 -0.939092 0.060206
0.150871 -0.964738 -0.215682
-0.280128 -0.768283 -0.575560
-0.680982 -0.089796 -0.726774
-0.690205 -0.546677 -0.474090
-0.213524 -0.976468 -0.030304
-0.014940 -0.998133 0.059219
0.105576 -0.982671 -0.152355
-0.249336 -0.731462 -0.634661
-0.657736 0.586432 -0.472737
-0.475527 0.855678 -0.204181
0.292975 -0.936282 0.193759
-0.023674 -0.952042 0.305050
-0.538769 -0.768714 0.344684
-0.848519 -0.510298 0.140042
-0.662711 -0.726103 0.183272
-0.310186 -0.870536 0.382037
-0.070707 -0.901522 0.426917
-0.061178 -0.894788 0.442280
-0.654492 -0.739888 0.155584
-0.820172 0.293525 -0.491082
-0.470906 0.714031 -0.518080
0.273420 -0.784428 0.556700
-0.194949 -0.544839 0.815565
-0.517606 -0.177210 0.837066
-0.487694 -0.507543 0.710320
-0.390896 -0.500974 0.772157
-0.327778 -0.090222 0.940437
-0.107408 -0.343027 0.933164
-0.151582 -0.326964 0.932801
-0.867919 -0.369399 0.332057
-0.478950 0.013596 -0.877737
-0.298817 0.194036 -0.934376
0.535392 0.787914 -0.304214
0.974038 -0.124667 -0.188965
0.689533 0.391018 -0.609631
0.233311 0.515123 -0.824751
-0.370308 0.913564 -0.168145
-0.475810 0.550053 0.686328
0.439030 0.360978 0.822768
0.808539 -0.015049 0.588250
0.835358 0.412404 -0.363457
0.231330 0.545992 -0.805219
0.103303 0.593461 -0.798206
-0.580873 0.794314 -0.177911
-0.691146 0.248134 0.678783
-0.428600 0.119914 0.895501
0.302717 -0.060131 0.951182
0.919695 0.255008 0.298550
0.853586 0.426121 -0.299688
0.363879 0.571804 -0.735277
0.070667 0.512101 -0.856013
0.065845 0.277108 -0.958580
0.299190 0.341628 -0.890941
-0.258149 0.558290 -0.788461
-0.925826 0.308548 0.218275
-0.516640 -0.034548 0.855506
-0.541102 -0.163232 0.824963
0.018596 -0.045865 0.998775
0.930968 -0.050070 0.361651
0.849981 0.117043 -0.513647
0.164601 0.257278 -0.952216
0.184852 0.346029 -0.919833
0.190954 0.381784 -0.904311
-0.690726 0.382959 -0.613385
-0.998255 0.048477 -0.033710
-0.932909 0.300448 0.198525
-0.275348 0.210035 0.938120
-0.109429 0.011799 0.993924
-0.544142 0.010158 0.838932
0.252645 -0.767863 0.588691
0.705338 -0.702624 0.093906
0.619249 -0.512131 -0.595191
0.269517 0.040726 -0.962134
0.224259 0.214077 -0.950726
-0.098612 0.015111 -0.995011
-0.928875 -0.236595 -0.284982
-0.960661 -0.064858 -0.270046
-0.960931 -0.273751 -0.040882
-0.787308 -0.414709 0.456248
0.015747 -0.413846 0.910211
0.112058 -0.352649 0.929022
-0.423579 -0.163413 0.890998
-0.428687 -0.387693 0.816040
0.126267 -0.953101 0.275055
0.380670 -0.902012 -0.203628
0.314149 -0.637217 -0.703750
0.055502 -0.615903 -0.785864
-0.478562 -0.807463 -0.344938
-0.248789 -0.940108 0.233027
-0.193952 -0.862755 0.466943
-0.075422 -0.906840 0.414671
-0.010083 -0.999298 0.036083
0.985628 0.000024 0.168930
0.541283 -0.204502 0.815593
0.466351 -0.235153 0.852772
0.388288 -0.491658 0.779426
0.675018 0.053547 0.735856
0.881051 0.351056 0.317032
0.825396 0.562713 0.045552
0.850834 0.470359 -0.234188
0.841247 0.037821 -0.539326
0.382441 -0.560615 -0.734472
0.306102 -0.914792 -0.263546
-0.437029 -0.752384 0.492873
-0.107293 -0.090877 0.990066
-0.313188 -0.592537 0.742168
-0.178924 -0.414056 0.892493
0.264391 0.771815 0.578272
0.379426 0.924683 -0.031579
0.285776 0.816575 -0.501535
0.182045 0.323993 -0.928380
-0.143791 -0.312063 -0.939117
-0.244834 -0.528682 -0.812743
-0.294106 -0.759502 -0.580223
0.030949 -0.673163 0.738846
0.024137 -0.269390 0.962729
-0.011952 -0.643067 0.765717
-0.090222 -0.225864 0.969972
-0.164087 0.557392 0.813873
-0.187557 0.982185 -0.011622
-0.055868 0.989730 -0.131580
-0.253196 0.584280 -0.771044
-0.291876 0.025649 -0.956112
-0.208440 -0.399344 -0.892792
-0.019363 -0.669395 -0.742655
-0.527555 -0.837626 -0.141665
-0.430619 -0.139817 0.891638
-0.380357 -0.397371 0.835120
-0.385090 -0.319718 0.865728
-0.828856 0.531590 0.174386
-0.711014 0.638647 -0.294261
-0.586588 0.016664 -0.809714
-0.515514 -0.376080 -0.769941
-0.985628 0.000025 -0.168929
0.016378 0.999689 -0.018806
0.673547 0.688539 0.268791
-0.130456 0.496338 0.858272
-0.244159 0.255016 0.935603
-0.359727 0.443578 0.820875
-0.880212 0.367317 0.300510
-0.805295 0.324835 -0.495965
0.061844 0.422662 -0.904175
0.234729 0.511624 -0.826525
0.018085 0.294602 -0.955449
0.539018 0.383021 -0.750170
0.857083 0.514897 -0.017042
0.680633 0.721175 0.129014
0.439150 0.011727 0.898337
-0.505713 -0.127826 0.853179
-0.094602 -0.072180 0.992895
0.012696 -0.100905 0.994815
-0.708499 -0.259234 0.656374
-0.905011 -0.174312 0.388033
-0.926255 -0.193718 -0.323304
-0.174504 -0.233811 -0.956494
0.173908 -0.176017 -0.968903
0.145644 -0.304721 -0.941240
0.279164 -0.401726 -0.872172
0.867146 -0.293202 -0.402606
0.999992 -0.002442 0.003292
0.828215 -0.378888 0.412921
-0.312419 -0.203028 0.927995
-0.263358 -0.006391 0.964677
-0.018827 -0.074661 0.997031
-0.717086 -0.198658 0.668073
-0.875602 -0.145473 0.460607
-0.574078 -0.235018 -0.784348
0.122245 -0.090665 -0.988350
0.386873 -0.209916 -0.897922
0.456218 -0.453080 -0.765888
0.881157 -0.368403 -0.296380
0.327914 -0.802578 0.498339
-0.017109 -0.426305 0.904418
-0.323385 -0.513589 0.794763
-0.721633 -0.675876 0.149788
-0.087696 -0.569979 -0.816966
0.497164 -0.375854 -0.782024
0.514060 -0.432609 -0.740670
0.543402 -0.687489 -0.481739
0.113978 -0.993480 0.002546
-0.922700 0.385518 -0.000508
-0.955104 -0.143049 -0.259449
-0.813480 0.579450 -0.049882
-0.171355 0.583351 0.793939
-0.531088 0.137962 0.836010
-0.555094 -0.831695 -0.012437
-0.842330 -0.359791 -0.401286
-0.837404 0.168410 -0.519992
-0.465808 0.720110 0.514261
-0.140378 0.509451 0.848972
0.043379 0.470973 0.881081
0.123172 -0.369571 0.921003
-0.173388 -0.926661 0.333520
-0.179861 -0.955057 -0.235620
-0.065503 -0.997787 -0.011459
-0.238716 -0.966606 0.093205
-0.449222 -0.565056 -0.692034
-0.566013 0.023627 -0.824058
-0.700854 0.421942 -0.575124
-0.653774 0.703715 -0.278146
-0.019544 0.999586 0.021102
0.076141 0.834827 0.545222
-0.214527 0.334625 0.917608
-0.184199 0.151398 0.971159
-0.041505 -0.299509 0.953190
-0.069989 -0.966408 0.247299
-0.152084 -0.986989 0.052176
-0.183173 -0.981265 -0.059721
-0.127206 -0.306010 -0.943492
0.062288 0.077800 -0.995021
-0.075799 0.074855 -0.994309
-0.066714 0.513967 -0.855212
-0.093403 0.930272 -0.354783
0.382108 0.851572 0.358913
0.432116 0.549065 0.715405
0.292974 0.227266 0.928717
0.120393 0.027398 0.992348
-0.061598 -0.586977 0.807257
-0.024183 -0.998576 0.047556
0.015864 -0.997220 0.072800
0.029801 -0.966073 0.256543
0.108919 -0.925458 -0.362854
0.346239 -0.059311 -0.936269
0.254350 0.078592 -0.963913
0.395565 0.116172 -0.911061
0.328483 0.721721 -0.609277
0.282311 0.958994 -0.025139
-0.008235 0.495640 0.868489
0.652201 0.430363 0.624037
0.660467 0.238712 0.711898
0.568937 0.120477 0.813509
0.670615 -0.550597 0.497110
0.626713 -0.771928 0.106573
0.596269 -0.774441 0.211436
0.797361 -0.589559 -0.128980
0.820305 0.064782 -0.568246
0.830442 0.070122 -0.552674
0.825912 0.299046 -0.477955
0.636228 0.754990 -0.158757
-0.487210 0.226215 0.843477
0.984691 -0.001739 0.174298
0.379948 -0.021493 -0.924758
0.996495 -0.003618 -0.083576
0.614504 0.580642 -0.534078
-0.367536 0.413365 -0.833095
-0.756567 0.202994 -0.621611
-0.687571 0.143121 -0.711872
-0.022629 -0.450101 -0.892691
0.463734 -0.516698 -0.719704
0.824522 -0.444368 -0.350287
0.987724 -0.048809 0.148387
0.948062 0.317755 0.014482
0.518387 0.798778 -0.305334
-0.073359 0.851148 -0.519774
-0.463194 0.718329 -0.519090
-0.854295 0.251277 -0.455017
-0.970853 -0.166840 -0.172073
-0.954640 0.283430 -0.091267
-0.762826 -0.362964 -0.535120
0.024568 -0.845367 -0.533620
0.682787 -0.719888 -0.124753
0.894622 -0.431000 0.117860
0.959267 -0.230725 0.163010
0.983853 0.074051 0.162940
0.781917 0.614379 0.105568
-0.047999 0.998468 0.027515
-0.217408 0.974037 -0.063130
-0.731551 0.627150 -0.267425
-0.937963 0.168854 -0.302844
-0.895304 -0.073306 -0.439382
-0.802473 0.328231 -0.498299
-0.940463 0.058116 -0.334890
-0.560379 -0.828139 0.012732
0.093504 -0.957125 0.274170
0.667982 -0.629330 0.397170
0.747496 -0.538544 0.388870
0.809318 -0.263781 0.524808
0.750261 0.406745 0.521218
0.012805 0.934782 0.354990
-0.336797 0.925158 0.175070
-0.549832 0.833414 0.055737
-0.788485 0.257178 -0.558704
-0.724622 0.024966 -0.688695
-0.948704 -0.261059 -0.178351
-0.537731 -0.714835 0.447053
0.080221 -0.771912 0.630648
0.536671 -0.615833 0.576831
0.620813 -0.457222 0.636819
0.577119 0.303458 0.758187
-0.011648 0.879915 0.474988
-0.317809 0.937284 0.143163
-0.475602 0.879261 0.026515
-0.862134 0.389913 -0.323563
-0.814082 -0.473872 -0.335731
-0.650152 -0.733291 0.198961
-0.045104 -0.871551 0.488226
0.287205 -0.803973 0.520712
0.308229 0.018480 0.951133
-0.002239 0.579452 0.815003
-0.348329 0.777569 0.523502
-0.915069 0.133874 0.380430
-0.468065 -0.818745 0.332524
0.093560 -0.697561 0.710391
-0.332189 -0.030565 0.942717
-0.983331 -0.066392 -0.169269
-0.947091 0.320467 0.017851
-0.814036 0.366823 -0.450318
-0.598212 0.397488 -0.695806
-0.830793 -0.279779 -0.481152
-0.698760 -0.712411 0.064853
-0.639859 -0.666970 0.381747
-0.859384 -0.247605 0.447382
-0.902584 0.381964 0.198609
-0.891563 0.434758 -0.126890
-0.753139 0.342015 -0.561968
-0.603591 0.238363 -0.760830
-0.491606 0.098381 -0.865243
-0.349238 -0.110542 -0.930491
-0.376329 -0.820908 -0.429519
-0.482355 -0.874925 0.042890
-0.399871 -0.866853 0.297774
-0.512465 -0.759224 0.401197
-0.528407 -0.477038 0.702297
-0.589167 -0.346355 0.730013
-0.843893 0.197695 0.498760
-0.698537 0.525945 0.485209
-0.662762 0.747264 0.048404
-0.693900 0.626491 -0.354982
-0.501828 0.531645 -0.682292
-0.284845 0.349256 -0.892683
-0.208955 0.358202 -0.909961
-0.096300 0.322315 -0.941721
-0.124871 0.003133 -0.992168
-0.068604 -0.623726 -0.778626
0.009856 -0.997015 -0.076576
0.031311 -0.970211 0.240229
0.043458 -0.889496 0.454872
-0.042513 -0.907376 0.418164
-0.178588 -0.844139 0.505505
-0.449235 -0.527276 0.721226
-0.388013 -0.261963 0.883641
-0.219332 -0.450160 0.865592
-0.269620 -0.280709 0.921145
-0.440968 0.194723 0.876145
-0.379090 0.784909 0.490110
-0.423259 0.864175 -0.272127
-0.270443 0.513947 -0.814076
0.043145 0.340104 -0.939398
0.114463 0.422307 -0.899197
0.077985 0.085585 -0.993274
0.514329 -0.424400 -0.745218
0.423285 -0.891506 -0.161390
0.478090 -0.833413 0.277224
0.300114 -0.873938 0.382315
0.137756 -0.965620 0.220455
-0.156000 -0.747311 0.645903
-0.257864 -0.266627 0.928664
-0.356695 0.084167 0.930422
-0.090647 -0.153074 0.984048
-0.029295 -0.038660 0.998823
-0.193764 0.358920 0.913034
-0.246665 0.746312 0.618202
-0.246311 0.961401 0.122630
-0.281835 0.925841 -0.251767
-0.216718 0.616021 -0.757332
-0.170196 0.137594 -0.975757
0.083394 0.260100 -0.961974
0.341676 0.200536 -0.918174
0.720903 -0.473314 -0.506234
0.746747 -0.664732 -0.022378
0.428323 -0.900923 0.069834
0.347036 -0.936090 0.057461
0.352912 -0.784755 0.509522
-0.106899 -0.044871 0.993257
-0.178483 0.187985 0.965819
-0.216631 0.024412 0.975948
-0.112390 0.122624 0.986069
-0.198484 0.455995 0.867567
-0.071504 0.874603 0.479537
0.013887 0.990128 0.139473
0.041987 0.998376 0.038508
0.068750 0.982066 -0.175555
-0.229110 0.671548 -0.704650
-0.251523 -0.178544 -0.951241
0.173813 0.015867 -0.984651
0.356887 0.259393 -0.897411
0.681270 -0.408569 -0.607407
0.641366 -0.745482 -0.181401
0.535993 -0.844215 0.003601
0.356811 -0.928335 -0.104309
0.410492 -0.902657 0.129251
0.475118 -0.655533 0.586975
0.155254 -0.264704 0.951750
-0.345153 -0.247071 0.905442
-0.344518 0.230912 0.909938
-0.184047 0.482877 0.856129
0.306148 0.899744 0.311021
0.252227 0.964138 0.082586
0.144066 0.985968 0.084338
-0.233027 0.968096 0.092132
-0.589618 0.772967 -0.234248
-0.536187 0.154528 -0.829834
-0.345653 -0.471900 -0.811070
-0.220894 -0.574875 -0.787860
0.161070 -0.402911 -0.900955
0.484988 -0.249322 -0.838227
0.619253 -0.764632 -0.178502
0.500140 -0.861237 -0.090174
0.277241 -0.893685 -0.352796
0.350667 -0.933423 0.075857
0.361527 -0.687129 0.630200
0.333679 -0.628275 0.702801
0.059159 -0.577670 0.814124
-0.276185 0.226329 0.934075
-0.178086 0.543605 0.820231
0.000337 0.671803 0.740730
-0.157702 0.874336 0.458985
-0.013654 0.965315 -0.260731
-0.046539 0.958573 0.281021
-0.006118 0.982449 0.186431
-0.112434 0.909520 0.400164
-0.119662 0.916431 0.381883
-0.214178 0.916869 0.336867
0.041538 0.955226 -0.292947
0.070909 0.240007 -0.968178
0.253273 -0.483507 -0.837898
0.273232 -0.640282 -0.717902
0.320769 -0.789169 -0.523756
0.458625 -0.534613 -0.709825
0.456415 -0.688515 -0.563589
0.368479 -0.775769 -0.512256
0.348724 -0.911878 -0.216497
0.095658 -0.923444 0.371619
-0.074871 -0.633261 0.770308
0.243856 -0.746841 0.618678
0.235384 -0.502290 0.832045
0.075748 0.218511 0.972890
-0.216940 0.505985 0.834815
0.038207 0.775675 0.629975
-0.026095 0.955947 0.292375
-0.451404 0.883630 0.124225
-0.187038 0.979002 -0.081063
-0.003213 0.980329 -0.197344
0.555632 0.831333 -0.012543
0.816002 0.315933 -0.484072
0.787125 -0.303962 -0.536695
0.664256 -0.633798 -0.396314
0.460602 -0.570348 -0.680110
0.767856 -0.542570 -0.340609
0.757159 -0.653216 -0.004425
0.301243 -0.781935 0.545739
-0.062726 -0.071461 0.995469
0.070815 -0.180075 0.981101
0.448847 -0.299902 0.841781
0.140478 0.185575 0.972537
0.018092 0.554570 0.831940
0.330110 0.727042 0.602028
0.107019 0.948004 0.299726
0.151727 0.952157 -0.265283
0.424163 0.813721 -0.397422
0.783180 0.135187 -0.606921
0.604246 -0.214845 -0.767287
0.770524 -0.535052 0.346428
0.703785 -0.305174 0.641526
0.943249 -0.254997 0.212739
0.974137 -0.216656 0.064168
0.887060 -0.186515 0.422300
0.825048 -0.226666 0.517609
0.555468 0.212890 0.803824
0.906682 0.193942 0.374585
0.428999 0.901220 0.061334
0.991304 0.095869 0.090147
</DataArray>
         </PointData>
         <Points>
            <DataArray NumberOfComponents="3" format="ascii" type="Float32">	0.144216 0.000285 -0.117207
0.148898 -0.000368 -0.109580
0.147248 0.000872 -0.104147
0.142712 0.002874 -0.100534
0.138443 0.004099 -0.102420
0.133006 0.006208 -0.100411
0.120013 0.011833 -0.090930
0.108545 0.018019 -0.072739
0.105696 0.019205 -0.071036
0.101853 0.020489 -0.071285
0.102260 0.020012 -0.074005
0.099122 0.020521 -0.078532
0.091555 0.022527 -0.083205
0.147743 0.004485 -0.111736
0.145331 0.008157 -0.106568
0.141753 0.010010 -0.103792
0.139001 0.008947 -0.105045
0.133928 0.010278 -0.102874
0.121114 0.016076 -0.094076
0.108921 0.025761 -0.080029
0.105079 0.027556 -0.077314
0.101106 0.027864 -0.076613
0.098668 0.026284 -0.078594
0.096774 0.024217 -0.081274
0.144759 0.006735 -0.114699
0.140673 0.012106 -0.110502
0.137955 0.013619 -0.108590
0.137383 0.011673 -0.109157
0.132933 0.012581 -0.106699
0.120213 0.018075 -0.098435
0.106071 0.027330 -0.087898
0.101130 0.030023 -0.084449
0.097455 0.030118 -0.082700
0.093254 0.026669 -0.082222
0.093406 0.024297 -0.083307