<?xml version="1.0"?>
<VTKFile type="PolyData" version="0.1" byte_order="LittleEndian" compressor="vtkZLibDataCompressor">
	<PolyData>
		<Piece NumberOfPoints="456" NumberOfVerts="0" NumberOfLines="0" NumberOfStrips="0" NumberOfPolys="908">
		<PointData Normals="Normals">
		<DataArray type="Float32" Name="Normals" NumberOfComponents="3" format="ascii">
			0.339593 0.769227 0.541264
			0.553223 0.339365 0.760773
			0.175650 0.594978 0.784314
			0.262748 0.849914 0.456739
			0.575086 0.731801 0.365708
			0.538717 0.816506 0.207614
			0.144306 0.291650 0.945577
			0.242488 0.020110 0.969946
			0.452626 -0.128079 0.882455
			0.737897 0.009660 0.674845
			0.861125 0.216774 0.459863
			0.796032 0.478885 0.370139
			-0.026516 0.792925 0.608742
			-0.182313 0.522950 0.832637
			0.117742 0.948950 0.292627
			0.406598 0.907854 0.102366
			0.828608 0.553330 0.085058
			0.657008 0.748387 -0.090873
			-0.143863 0.089363 0.985554
			0.104731 -0.235791 0.966143
			0.453401 -0.321988 0.831114
			0.782033 -0.213477 0.585535
			0.919714 -0.077761 0.384812
			0.964901 0.196705 0.173992
			-0.140150 0.850344 0.507221
			-0.342794 0.665947 0.662575
			-0.426066 0.289224 0.857215
			-0.108478 0.982363 0.152298
			0.137247 0.989866 -0.036437
			0.356658 0.910730 -0.208244
			0.877675 0.443172 -0.182441
			0.575945 0.723010 -0.381503
			-0.245974 -0.164826 0.955159
			0.081267 -0.429541 0.899383
			0.436821 -0.518612 0.735003
			0.773123 -0.450298 0.446668
			0.959379 -0.218810 0.178083
			0.995583 0.079951 -0.049223
			-0.335715 0.870040 0.361007
			-0.526028 0.626689 0.574940
			-0.633413 0.271757 0.724525
			-0.524203 -0.122609 0.842721
			-0.499556 0.857633 0.122104
			-0.268153 0.960547 -0.073784
			-0.044693 0.964886 -0.258838
			0.187186 0.862790 -0.469632
			0.930326 0.078440 -0.358247
			0.752248 0.433464 -0.496217
			0.420908 0.619514 -0.662599
			-0.249729 -0.470998 0.846047
			0.108807 -0.643830 0.757393
			0.498906 -0.688124 0.526856
			0.795129 -0.566802 0.215648
			0.959500 -0.275454 -0.059046
			-0.698740 0.623924 0.349974
			-0.812656 0.249269 0.526740
			-0.736047 -0.191422 0.649301
			-0.395286 -0.494927 0.773819
			-0.603713 0.796145 -0.041029
			-0.797610 0.557281 0.230774
			-0.382372 0.883379 -0.270983
			-0.160439 0.847320 -0.506269
			0.053733 0.682565 -0.728846
			0.827440 -0.109928 -0.550689
			0.646965 0.261126 -0.716415
			0.240325 0.408957 -0.880339
			-0.020925 -0.744877 0.666873
			0.433013 -0.775323 0.459755
			0.693308 -0.715697 0.084271
			0.841027 -0.471317 -0.265584
			-0.849396 0.219278 0.480046
			-0.781425 -0.214087 0.586124
			-0.514821 -0.614363 0.597927
			-0.070864 -0.830276 0.552829
			-0.593453 0.725779 -0.347934
			-0.814143 0.572877 -0.094785
			-0.952227 0.295188 0.078290
			-0.414314 0.717589 -0.559831
			-0.210995 0.584304 -0.783626
			-0.059794 0.343994 -0.937066
			0.630682 -0.275352 -0.725549
			0.475853 0.072997 -0.876490
			0.108827 0.007563 -0.994032
			0.320719 -0.869563 0.375499
			0.706533 -0.707669 -0.003969
			0.723902 -0.571642 -0.386254
			-0.940813 0.019490 0.338364
			-0.796676 -0.497809 0.342771
			-0.466005 -0.845054 0.262149
			-0.208860 -0.951240 0.226980
			-0.870769 0.361126 -0.333689
			-0.745511 0.304211 -0.593016
			-0.976882 0.137306 -0.163855
			-0.971567 -0.220917 0.085162
			-0.645337 0.244516 -0.723707
			-0.369394 0.214342 -0.904216
			-0.080643 -0.013800 -0.996647
			0.434934 -0.613398 -0.659224
			0.318546 -0.312349 -0.894968
			0.131843 -0.348244 -0.928086
			-0.080451 -0.982265 0.169361
			0.138293 -0.990226 -0.018094
			0.369518 -0.888146 -0.273229
			-0.637162 -0.686539 0.350270
			-0.247930 -0.909328 0.334146
			-0.125277 -0.975375 0.181522
			-0.935522 0.207058 -0.286227
			-0.785094 0.365731 -0.499868
			-0.977249 -0.063698 0.202306
			-0.692157 -0.396135 0.603320
			-0.524642 0.466458 -0.712157
			-0.003578 0.208394 -0.978039
			0.190094 -0.740534 -0.644573
			0.436552 -0.193260 -0.878677
			0.058899 -0.998263 -0.000930
			0.150599 -0.945738 -0.287925
			-0.076791 -0.654160 0.752447
			0.379203 -0.842128 0.383440
			-0.748996 0.648301 0.136790
			-0.877453 0.240605 0.414951
			-0.220441 0.927394 -0.302235
			-0.708549 -0.051127 0.703808
			-0.284770 -0.192038 0.939163
			0.302290 0.717155 -0.627940
			0.741156 0.187824 -0.644523
			0.552542 -0.517302 -0.653527
			0.792947 -0.198466 -0.576061
			0.633085 -0.747816 -0.199938
			0.424241 -0.452709 0.784267
			0.841052 -0.485831 0.237908
			-0.087437 0.987879 0.128261
			-0.565554 0.677232 0.470644
			-0.783421 0.300473 0.544028
			-0.739833 0.184618 0.646964
			0.447238 0.851656 -0.273240
			-0.475322 0.073970 0.876697
			0.073158 -0.089582 0.993289
			0.721915 0.482874 -0.495653
			0.758349 -0.127231 -0.639312
			0.865539 -0.311033 -0.392559
			0.823578 -0.175114 -0.539494
			0.748790 -0.289728 -0.596130
			0.769351 -0.378115 0.514907
			0.961168 -0.270705 -0.053622
			0.108288 0.949417 0.294755
			0.499259 0.837863 -0.220738
			0.058366 0.516790 0.854120
			-0.332320 0.306157 0.892094
			-0.285416 0.551585 0.783768
			-0.422006 0.318605 0.848764
			0.569345 0.524233 -0.633265
			-0.393522 0.246803 0.885567
			0.214250 0.193758 0.957368
			0.590917 -0.038303 -0.805823
			0.705795 -0.202826 -0.678760
			0.657478 -0.255535 -0.708819
			0.946691 -0.309424 -0.089627
			0.834431 -0.122006 -0.537437
			0.848354 -0.286114 0.445460
			0.345325 0.904032 0.251946
			0.271920 0.874579 -0.401462
			0.378603 0.341668 -0.860187
			0.795435 0.333799 0.505828
			0.652929 -0.130065 0.746168
			0.581969 0.324838 0.745516
			0.188977 0.414477 0.890222
			-0.240727 0.320957 0.915990
			0.491787 -0.058699 -0.868734
			-0.178514 0.554098 0.813085
			-0.132985 0.647491 0.750380
			0.604628 0.293772 0.740354
			0.684930 -0.095578 -0.722312
			0.585268 -0.180815 -0.790422
			0.640247 -0.176477 -0.747624
			0.667217 -0.131078 -0.733239
			0.887149 -0.248747 0.388706
			0.899978 -0.157928 0.406322
			0.996476 0.083877 -0.000398
			0.121134 0.954323 -0.273119
			-0.051101 0.357215 -0.932624
			0.214560 0.020803 -0.976489
			0.334903 0.897918 0.285627
			0.563450 0.127130 0.816310
			0.310507 0.102726 0.945004
			-0.083220 0.089631 0.992492
			-0.308682 0.070310 0.948563
			-0.555044 0.382251 0.738790
			0.573055 -0.244765 -0.782111
			0.472905 -0.100969 -0.875309
			-0.297779 0.561258 0.772216
			0.231737 0.248965 0.940380
			0.898305 -0.208986 0.386487
			0.817414 0.130388 -0.561099
			0.622182 0.036310 -0.782030
			0.528861 -0.104096 -0.842301
			0.955626 -0.009014 -0.294446
			0.834755 -0.318571 0.449105
			0.725270 -0.143625 0.673318
			0.871328 -0.005442 0.490672
			-0.384966 0.673664 -0.630855
			-0.419466 0.906941 -0.038809
			-0.247196 0.241539 -0.938378
			0.123455 0.188479 -0.974287
			-0.585017 0.580767 0.566096
			-0.531099 0.020405 0.847063
			-0.657072 -0.032436 0.753130
			-0.680192 -0.214257 0.701023
			-0.785498 -0.225381 0.576365
			-0.855436 0.026942 0.517208
			0.242158 -0.351936 -0.904158
			0.338108 -0.162193 -0.927026
			-0.303267 -0.205564 0.930469
			0.630046 -0.491766 0.601006
			0.809385 -0.441075 0.387747
			0.831325 0.162720 -0.531433
			0.607157 0.152756 -0.779760
			0.331651 -0.021571 -0.943155
			0.995824 0.064090 0.065004
			0.599144 -0.266899 0.754845
			0.772740 -0.062286 0.631661
			-0.520691 0.430032 -0.737533
			-0.768370 0.571768 -0.287557
			-0.916140 0.370556 0.152893
			-0.242921 0.206845 -0.947737
			-0.917136 0.083701 0.389688
			-0.965773 -0.070555 0.249607
			-0.951576 -0.261404 0.161772
			-0.879274 -0.349557 0.323556
			-0.913655 -0.308065 0.265197
			-0.801690 -0.348906 0.485343
			-0.789608 -0.428433 0.439277
			-0.185059 -0.403546 -0.896049
			-0.127037 -0.336986 -0.932900
			-0.058726 -0.772422 0.632388
			0.416779 -0.700985 0.578719
			0.742956 0.171309 -0.647047
			0.989911 0.137133 -0.035642
			0.424871 0.067481 -0.902735
			-0.247671 -0.129440 -0.960158
			0.178541 0.003220 -0.983927
			0.751980 -0.035105 0.658251
			0.281863 -0.309779 0.908069
			-0.734399 0.189653 -0.651682
			-0.943200 0.151717 -0.295561
			-0.995106 0.059584 -0.078832
			-0.594132 -0.295981 -0.747932
			-0.976215 -0.201557 -0.079871
			-0.882896 -0.432174 0.183633
			-0.935514 -0.302216 -0.182969
			-0.908735 -0.325601 -0.261123
			-0.804286 -0.412672 0.427582
			-0.442606 -0.737422 0.510204
			-0.611180 -0.383573 -0.692338
			0.632453 0.164425 -0.756946
			0.978510 0.204271 -0.028128
			0.721694 0.077452 0.687866
			-0.422924 -0.097243 -0.900933
			-0.721665 -0.210050 -0.659605
			0.158015 0.056416 -0.985824
			0.009531 -0.146282 0.989197
			-0.327452 -0.351361 0.877109
			-0.859184 -0.209236 -0.466928
			-0.887574 -0.280837 -0.365160
			-0.660638 -0.240442 0.711158
			-0.961984 -0.248324 -0.113677
			0.460802 0.145747 -0.875454
			0.957912 0.200684 -0.205257
			0.490733 0.065146 0.868871
			-0.512681 -0.082440 -0.854612
			-0.357382 -0.058781 -0.932107
			-0.553523 -0.178038 0.813581
			-0.965647 -0.254496 -0.052515
			0.350574 0.078621 -0.933229
			0.934508 0.184783 -0.304221
			0.540415 0.112054 0.833903
			-0.553941 -0.108531 0.825452
			-0.504957 -0.147147 -0.850510
			-0.968477 -0.246037 0.038971
			0.368364 0.005436 -0.929666
			0.965792 0.126313 -0.226475
			0.537382 0.096770 0.837768
			-0.603854 -0.066945 0.794279
			-0.982534 -0.175559 0.061707
			-0.587073 -0.153497 -0.794848
			0.425265 -0.018608 -0.904878
			0.992088 0.116524 -0.046732
			0.394272 0.124359 0.910540
			-0.668516 -0.007287 0.743663
			-0.992570 -0.120971 -0.013046
			-0.586055 -0.138864 -0.798284
			0.485267 -0.044537 -0.873231
			0.995984 0.088457 -0.013776
			0.386309 0.124621 0.913912
			-0.679911 0.023892 0.732905
			-0.991015 -0.082814 -0.105028
			-0.509784 -0.140804 -0.848702
			0.372017 -0.094735 -0.923379
			0.995914 0.031544 -0.084623
			0.418023 0.145611 0.896690
			-0.627819 0.081749 0.774054
			-0.996235 -0.012995 -0.085723
			-0.508995 -0.098234 -0.855146
			-0.157494 -0.086393 -0.983734
			0.690942 -0.069389 -0.719571
			0.998608 0.010714 0.051657
			0.496540 0.145126 0.855795
			-0.460334 0.123320 0.879139
			-0.941753 0.052881 0.332121
			-0.815810 -0.028449 -0.577620
			-0.228885 -0.051620 -0.972084
			0.620057 -0.083522 -0.780098
			0.999685 -0.017733 -0.017765
			0.570668 0.159442 0.805554
			-0.514658 0.194331 0.835082
			-0.903683 0.093294 0.417915
			-0.901679 0.052035 -0.429262
			-0.223217 0.090776 -0.970533
			0.576313 0.000842 -0.817228
			0.997969 -0.037185 0.051729
			0.741779 0.160356 0.651192
			-0.424358 0.386152 0.819029
			-0.929265 0.173686 0.326035
			-0.966358 0.199697 -0.162089
			-0.659757 0.540418 -0.522178
			0.098995 0.242130 -0.965180
			0.830583 0.239849 -0.502598
			0.983511 0.134555 0.120841
			0.859275 0.156127 0.487104
			0.067369 0.539747 0.839127
			-0.876040 0.372638 0.306096
			-0.906022 0.360711 0.221387
			-0.468684 0.794153 -0.386853
			0.048572 0.408202 -0.911598
			-0.601828 0.742072 0.295181
			0.335486 0.198857 -0.920817
			0.770248 0.175349 -0.613165
			0.992123 0.098965 0.076796
			0.989111 0.136491 0.055040
			0.865364 0.297415 0.403348
			0.772791 0.419877 0.475919
			0.214587 0.693490 0.687768
			-0.834928 0.518892 0.183427
			-0.784328 0.603878 0.141988
			-0.743263 0.637085 0.204159
			-0.444710 0.688164 -0.573291
			-0.483685 0.810528 0.330291
			-0.035278 0.345463 -0.937769
			0.241286 0.040160 -0.969623
			-0.591320 0.603285 0.535154
			0.344243 -0.051687 -0.937457
			0.876047 -0.137545 -0.462193
			0.932770 -0.322741 0.160558
			0.943725 -0.280670 -0.174947
			0.997646 0.060748 -0.031801
			0.867153 0.185502 0.462206
			0.790376 0.224889 0.569852
			0.759454 0.011395 0.650462
			0.441939 0.147170 0.884890
			-0.189754 0.696980 0.691529
			-0.586467 0.779822 0.218937
			-0.591771 0.802091 -0.080360
			-0.864642 0.488057 0.119138
			-0.719970 0.527057 -0.451502
			-0.434292 0.132901 -0.890914
			-0.773817 0.631265 0.052077
			-0.491378 0.202639 0.847045
			-0.663239 0.440556 0.604999
			-0.134378 -0.210649 -0.968282
			0.157545 -0.275940 -0.948175
			-0.939549 -0.233465 0.250483
			0.199796 -0.217120 -0.955479
			0.341424 -0.184157 -0.921691
			0.805304 -0.532809 -0.260001
			0.749254 -0.624641 0.220094
			0.714883 -0.660640 -0.229121
			0.707651 -0.383402 -0.593492
			0.971843 -0.208637 0.109510
			0.827067 -0.028527 0.561380
			0.809635 0.025582 0.586375
			0.664104 -0.206803 0.718469
			0.332029 -0.124214 0.935055
			-0.191287 0.194416 0.962088
			-0.414940 0.746288 0.520461
			-0.243076 0.963816 0.109417
			-0.334127 0.871868 -0.358059
			-0.690027 0.394715 -0.606682
			-0.729025 0.047702 -0.682823
			-0.975711 0.218788 0.010952
			-0.377293 -0.135881 -0.916071
			-0.883875 0.044326 0.465618
			-0.453616 -0.248063 0.855978
			-0.480101 -0.149172 0.864436
			-0.154508 -0.155848 -0.975622
			0.085385 -0.219007 -0.971980
			-0.623619 -0.069603 -0.778625
			-0.917685 -0.396528 -0.024906
			0.174148 -0.242773 -0.954324
			0.388344 -0.673850 -0.628583
			0.491326 -0.863571 0.113328
			0.372044 -0.908773 0.188982
			0.281433 -0.836201 -0.470706
			0.646449 -0.700060 -0.303345
			0.788460 -0.104584 0.606131
			0.729091 -0.141916 0.669542
			0.576993 -0.274936 0.769084
			0.306353 -0.258192 0.916234
			-0.107452 -0.023060 0.993943
			-0.640535 0.163314 0.750362
			-0.638806 0.765931 -0.072636
			-0.565064 0.346810 -0.748616
			-0.876909 -0.313704 -0.364171
			-0.844772 -0.438283 0.307030
			-0.605607 -0.400668 -0.687535
			-0.607250 -0.595824 0.525586
			-0.313938 -0.534972 0.784377
			-0.181122 -0.650226 -0.737835
			0.125160 -0.674351 -0.727726
			-0.543107 -0.230179 -0.807498
			-0.683017 -0.231223 -0.692837
			-0.491392 -0.488929 -0.720751
			-0.590998 -0.771896 -0.234303
			-0.361902 -0.791064 0.493199
			0.149390 -0.971887 -0.181985
			0.175131 -0.969012 0.174201
			-0.062782 -0.971722 -0.227629
			-0.052079 -0.922977 0.381314
			0.034068 -0.838021 -0.544573
			0.249833 -0.891965 -0.376805
			0.642031 -0.662234 0.386319
			0.610391 -0.130603 0.781259
			0.481817 -0.285951 0.828302
			0.219724 -0.271719 0.936958
			-0.047609 -0.241779 0.969162
			-0.735842 -0.382196 0.558983
			-0.991863 0.080624 -0.098520
			-0.595887 -0.763817 0.247999
			-0.394005 -0.782099 0.482786
			-0.430732 -0.902028 0.028556
			-0.136713 -0.826862 0.545535
			-0.100463 -0.994209 -0.038167
			-0.592640 -0.557240 -0.581602
			-0.874429 -0.465356 -0.137183
			-0.410693 -0.684735 -0.602054
			-0.327315 -0.694379 -0.640861
			-0.044662 -0.975482 0.215499
			0.138266 -0.986704 -0.085422
			-0.144048 -0.862297 -0.485483
			0.447781 -0.462902 0.764992
			0.084847 -0.452698 0.887618
			-0.401622 -0.569602 0.717115
			-0.711804 -0.698365 0.074969
			-0.237313 -0.919024 0.314767
			-0.538766 -0.803691 -0.252610
			-0.228938 -0.967776 -0.104868
			-0.006898 -0.900940 0.433888
			-0.376976 -0.899922 0.219157
		</DataArray>
	</PointData>
	<Points>
		<DataArray type="Float32" NumberOfComponents="3" format="ascii">
			0.006237 0.016249 0.014731
			0.012453 0.007692 0.016243
			0.002001 0.013279 0.019191
			0.004959 0.018877 0.011505
			0.012430 0.016125 0.010495
			0.015014 0.015966 0.004969
			-0.000147 0.006291 0.022528
			0.003503 -0.002121 0.023314
			0.011272 -0.006548 0.019519
			0.018405 -0.000887 0.014714
			0.020194 0.004164 0.008784
			0.017575 0.012429 0.007292
			0.000304 0.016495 0.015900
			-0.003965 0.010363 0.020571
			0.001594 0.021308 0.006702
			0.009689 0.019701 0.002268
			0.020182 0.010411 0.001400
			0.015559 0.016048 -0.002181
			-0.004100 0.001715 0.023297
			0.001095 -0.005448 0.022794
			0.010563 -0.009522 0.018815
			0.018111 -0.006751 0.013966
			0.021591 -0.003108 0.008305
			0.022660 0.001930 0.004262
			-0.003750 0.019192 0.011658
			-0.008030 0.013950 0.016501
			-0.009454 0.005730 0.020759
			-0.002122 0.022348 0.002290
			0.002431 0.022200 -0.001906
			0.007750 0.020082 -0.005777
			0.019795 0.009689 -0.005533
			0.013698 0.015206 -0.009879
			-0.006037 -0.004399 0.022587
			0.001163 -0.010546 0.021244
			0.010610 -0.012411 0.017157
			0.017905 -0.010553 0.011524
			0.022229 -0.005899 0.004070
			0.022979 0.001342 -0.003808
			-0.007328 0.020270 0.007137
			-0.012068 0.015534 0.012161
			-0.014584 0.006679 0.017166
			-0.012242 -0.002225 0.020147
			-0.011934 0.019605 0.002437
			-0.006619 0.021704 -0.001601
			-0.001926 0.021757 -0.006312
			0.002714 0.019940 -0.010783
			0.022635 -0.000449 -0.007249
			0.018136 0.009162 -0.011235
			0.009008 0.013512 -0.016217
			-0.006074 -0.010096 0.020521
			0.001890 -0.014178 0.018632
			0.010292 -0.016388 0.013763
			0.018538 -0.012908 0.006369
			0.021984 -0.008721 -0.000623
			-0.016214 0.014896 0.007195
			-0.018441 0.006621 0.012678
			-0.016601 -0.003732 0.016160
			-0.009849 -0.011757 0.017801
			-0.015983 0.016801 -0.000512
			-0.019615 0.011200 0.005931
			-0.010601 0.019490 -0.005995
			-0.004989 0.018861 -0.012049
			0.000309 0.015084 -0.017530
			0.019460 -0.004367 -0.012519
			0.014237 0.005696 -0.017291
			0.004652 0.009620 -0.020859
			-0.000700 -0.016009 0.017114
			0.009099 -0.018270 0.012109
			0.016996 -0.015782 0.003034
			0.020802 -0.010242 -0.005755
			-0.020880 0.001321 0.010453
			-0.017472 -0.007808 0.013594
			-0.008279 -0.014437 0.017329
			0.001276 -0.017899 0.015078
			-0.013153 0.016828 -0.009279
			-0.017880 0.014765 -0.003856
			-0.021551 0.008939 0.001814
			-0.009590 0.015565 -0.014902
			-0.006077 0.013495 -0.018414
			-0.002830 0.008292 -0.021681
			0.013356 -0.004878 -0.018745
			0.009584 0.001825 -0.021524
			0.002492 -0.000378 -0.023549
			0.010816 -0.019318 0.008040
			0.014839 -0.017412 -0.003482
			0.016177 -0.012535 -0.011842
			-0.023062 0.000763 0.006649
			-0.020308 -0.006854 0.010143
			-0.012005 -0.014041 0.012180
			-0.002507 -0.017599 0.011545
			-0.020077 0.010782 -0.005977
			-0.015439 0.012226 -0.012348
			-0.022264 0.004045 -0.000853
			-0.022645 -0.003625 0.001649
			-0.011628 0.009989 -0.018100
			-0.006427 0.005694 -0.021840
			-0.003825 -0.001754 -0.023334
			0.012066 -0.015554 -0.013514
			0.007327 -0.007359 -0.021215
			0.001068 -0.009257 -0.021450
			0.004684 -0.019788 0.007341
			0.008938 -0.020501 0.002536
			0.012047 -0.018739 -0.006109
			-0.016766 -0.012253 0.006719
			-0.008453 -0.016572 0.006908
			-0.001486 -0.019128 0.004201
			-0.019778 -0.001319 -0.007487
			-0.014844 0.003803 -0.012235
			-0.021620 -0.009408 -0.002904
			-0.016876 -0.016722 0.000997
			-0.011501 0.001468 -0.017577
			-0.007361 -0.002059 -0.022808
			0.004534 -0.015612 -0.016715
			-0.003341 -0.009303 -0.022171
			0.003365 -0.019542 -0.000720
			0.006058 -0.018849 -0.008282
			-0.010352 -0.020660 0.000991
			-0.002981 -0.021786 -0.004596
			-0.023374 -0.007323 -0.015686
			-0.025101 -0.015170 -0.010066
			-0.018245 -0.003081 -0.021313
			-0.021143 -0.021184 -0.005353
			-0.017617 -0.027233 -0.003644
			-0.013396 -0.006393 -0.027005
			-0.010328 -0.014049 -0.028211
			-0.000308 -0.015123 -0.018256
			-0.009175 -0.021305 -0.025957
			0.000829 -0.019496 -0.012617
			-0.012356 -0.030086 -0.004696
			-0.007631 -0.030820 -0.010708
			-0.023317 -0.003809 -0.025809
			-0.026347 -0.008844 -0.019591
			-0.027438 -0.017052 -0.013962
			-0.026211 -0.025046 -0.010205
			-0.019775 -0.005939 -0.031662
			-0.021306 -0.033184 -0.005099
			-0.017731 -0.035639 -0.004030
			-0.015828 -0.010334 -0.035001
			-0.013554 -0.016472 -0.036274
			-0.007590 -0.028023 -0.021002
			-0.012638 -0.032025 -0.028132
			-0.014230 -0.022463 -0.032848
			-0.010834 -0.038989 -0.012038
			-0.008725 -0.037946 -0.020334
			-0.027389 -0.002509 -0.030962
			-0.023693 -0.003920 -0.035766
			-0.032265 -0.007025 -0.024423
			-0.033543 -0.015071 -0.023549
			-0.032322 -0.023602 -0.018113
			-0.029380 -0.033027 -0.010384
			-0.020904 -0.007522 -0.039922
			-0.025115 -0.040066 -0.006589
			-0.021061 -0.044448 -0.003342
			-0.020156 -0.012586 -0.041402
			-0.018359 -0.028440 -0.034414
			-0.020359 -0.019408 -0.038933
			-0.010073 -0.045394 -0.020849
			-0.014224 -0.037534 -0.028898
			-0.014869 -0.046123 -0.010782
			-0.032857 -0.000586 -0.033321
			-0.029996 -0.000865 -0.040032
			-0.027214 -0.007116 -0.043582
			-0.037821 -0.001667 -0.018148
			-0.040932 -0.010885 -0.021294
			-0.040855 -0.020288 -0.020025
			-0.039054 -0.027359 -0.014397
			-0.035696 -0.035113 -0.012180
			-0.026111 -0.016586 -0.043750
			-0.030276 -0.043109 -0.007786
			-0.026814 -0.047499 -0.004389
			-0.022204 -0.050377 0.000198
			-0.022969 -0.033175 -0.037963
			-0.025491 -0.025991 -0.040753
			-0.014218 -0.047537 -0.029868
			-0.018627 -0.040207 -0.033704
			-0.020028 -0.052402 -0.007006
			-0.012864 -0.053581 -0.016940
			-0.010514 -0.051286 -0.024447
			-0.035362 0.000384 -0.037160
			-0.031340 -0.008912 -0.044841
			-0.029331 -0.019029 -0.044773
			-0.039096 0.001529 -0.019726
			-0.042320 -0.002198 -0.011923
			-0.045428 -0.016396 -0.014451
			-0.044196 -0.027193 -0.012574
			-0.041767 -0.037520 -0.012388
			-0.036028 -0.045095 -0.007716
			-0.027394 -0.036531 -0.040892
			-0.029250 -0.028868 -0.044890
			-0.031574 -0.050149 0.000907
			-0.026404 -0.053521 0.004042
			-0.021825 -0.055760 0.000439
			-0.012925 -0.053838 -0.029378
			-0.018208 -0.049910 -0.034351
			-0.023373 -0.043344 -0.038262
			-0.010085 -0.056632 -0.023853
			-0.021808 -0.056972 -0.006632
			-0.017292 -0.058067 -0.013455
			-0.012869 -0.058574 -0.017669
			-0.040178 -0.001490 -0.038487
			-0.044619 0.001131 -0.023663
			-0.037799 -0.010699 -0.044306
			-0.036438 -0.019954 -0.046734
			-0.047378 -0.001061 -0.013395
			-0.049543 -0.017302 -0.014367
			-0.050360 -0.026708 -0.014630
			-0.049020 -0.036133 -0.015744
			-0.040076 -0.047147 -0.014319
			-0.034778 -0.053610 -0.001192
			-0.033215 -0.037972 -0.043294
			-0.034590 -0.030100 -0.047775
			-0.028929 -0.056835 0.003271
			-0.023427 -0.059496 -0.000070
			-0.022750 -0.061094 -0.009018
			-0.012930 -0.059920 -0.031510
			-0.020410 -0.054441 -0.037670
			-0.028394 -0.048723 -0.040504
			-0.009433 -0.062742 -0.026398
			-0.017337 -0.063738 -0.014395
			-0.011147 -0.064376 -0.019627
			-0.043573 -0.005983 -0.038765
			-0.051431 -0.003633 -0.026112
			-0.051715 -0.007215 -0.018500
			-0.042434 -0.018084 -0.047270
			-0.053074 -0.015310 -0.019660
			-0.053493 -0.026177 -0.022115
			-0.051284 -0.034851 -0.023518
			-0.044488 -0.051667 -0.021424
			-0.035747 -0.058757 -0.013487
			-0.037854 -0.061844 -0.020962
			-0.034504 -0.060415 -0.002782
			-0.038125 -0.039424 -0.042604
			-0.039512 -0.029380 -0.049029
			-0.028457 -0.062049 0.000757
			-0.024674 -0.066033 -0.010867
			-0.013806 -0.067201 -0.035263
			-0.008635 -0.069216 -0.026715
			-0.022107 -0.065462 -0.039653
			-0.034805 -0.047836 -0.041780
			-0.027874 -0.064307 -0.041822
			-0.012083 -0.070301 -0.018945
			-0.019180 -0.068743 -0.014340
			-0.047501 -0.018831 -0.043043
			-0.053158 -0.017200 -0.034861
			-0.054163 -0.019199 -0.028386
			-0.044878 -0.032225 -0.044349
			-0.053398 -0.028578 -0.030791
			-0.041408 -0.063076 -0.027658
			-0.044881 -0.054934 -0.028981
			-0.049096 -0.041693 -0.029994
			-0.034618 -0.073187 -0.024512
			-0.031691 -0.066002 -0.012460
			-0.042899 -0.042835 -0.038362
			-0.008533 -0.083414 -0.035528
			-0.005449 -0.083414 -0.028771
			-0.008806 -0.084573 -0.021612
			-0.034034 -0.065224 -0.040676
			-0.039837 -0.053013 -0.037552
			-0.020167 -0.083305 -0.041202
			-0.017238 -0.085186 -0.018554
			-0.020193 -0.076417 -0.017019
			-0.050129 -0.031288 -0.038583
			-0.039514 -0.064257 -0.034417
			-0.026056 -0.088350 -0.022919
			-0.033352 -0.086157 -0.035879
			-0.007732 -0.114743 -0.042875
			-0.000430 -0.107347 -0.033290
			-0.002294 -0.113007 -0.022193
			-0.029520 -0.085334 -0.042180
			-0.021558 -0.115449 -0.043839
			-0.017131 -0.114730 -0.023468
			-0.025603 -0.116932 -0.038368
			-0.000899 -0.145764 -0.045155
			0.008005 -0.143353 -0.036619
			0.005102 -0.143528 -0.021570
			-0.007791 -0.146576 -0.024018
			-0.010714 -0.147796 -0.044269
			-0.014942 -0.149026 -0.036506
			0.007098 -0.178401 -0.044797
			0.014582 -0.175554 -0.036381
			0.011355 -0.175162 -0.021266
			-0.001843 -0.175151 -0.023565
			-0.006916 -0.177528 -0.034340
			-0.003611 -0.176914 -0.043429
			0.011987 -0.206374 -0.042757
			0.019994 -0.204443 -0.030589
			0.012454 -0.204587 -0.018951
			0.002748 -0.206800 -0.021995
			-0.001458 -0.208076 -0.032890
			0.002147 -0.207960 -0.041451
			0.018022 -0.241751 -0.038845
			0.024412 -0.239962 -0.027419
			0.017629 -0.238952 -0.015781
			0.006897 -0.239368 -0.018165
			0.002854 -0.242416 -0.029291
			0.008045 -0.242579 -0.038462
			0.022704 -0.274641 -0.033460
			0.027770 -0.273026 -0.023568
			0.020592 -0.270831 -0.011608
			0.008703 -0.272479 -0.014432
			0.005377 -0.275061 -0.027173
			0.011753 -0.276413 -0.034218
			0.013650 -0.307083 -0.030561
			0.021442 -0.306786 -0.030323
			0.028901 -0.305174 -0.017232
			0.024085 -0.303786 -0.006991
			0.014276 -0.303605 -0.007612
			0.006659 -0.304867 -0.014874
			0.006612 -0.306907 -0.025777
			0.013054 -0.340184 -0.027232
			0.024141 -0.340585 -0.026409
			0.029457 -0.341299 -0.012951
			0.023347 -0.338525 -0.000005
			0.013492 -0.337084 -0.001112
			0.007146 -0.337793 -0.010299
			0.004828 -0.339171 -0.021746
			0.011062 -0.367059 -0.026351
			0.025928 -0.369993 -0.022350
			0.027308 -0.368313 -0.006155
			0.023994 -0.365258 0.004744
			0.013548 -0.362424 0.007869
			0.005486 -0.367552 -0.007480
			0.002313 -0.366642 -0.021499
			-0.002055 -0.379953 -0.023518
			0.010500 -0.381437 -0.027461
			0.025436 -0.386524 -0.024021
			0.027163 -0.384931 -0.002902
			0.021150 -0.378024 0.010950
			0.011838 -0.375358 0.016393
			0.006829 -0.377939 0.007962
			0.003978 -0.380700 -0.004305
			-0.007984 -0.386908 -0.028509
			0.006763 -0.394172 -0.032782
			-0.004168 -0.386950 -0.014755
			0.018043 -0.397334 -0.030910
			0.030992 -0.397236 -0.024511
			0.029752 -0.395803 -0.011745
			0.028849 -0.395923 -0.001296
			0.025870 -0.391159 0.010146
			0.020398 -0.388099 0.018187
			0.007710 -0.387986 0.032202
			0.011267 -0.382211 0.021811
			0.003414 -0.386063 0.012588
			0.001252 -0.387863 -0.000955
			-0.014424 -0.391566 -0.028519
			-0.013424 -0.390087 -0.013782
			-0.003092 -0.398518 -0.036561
			0.005214 -0.402182 -0.035277
			-0.009865 -0.392127 -0.008843
			0.016762 -0.404484 -0.031369
			0.031301 -0.405952 -0.024448
			0.029490 -0.405345 -0.011754
			0.027595 -0.406431 -0.002525
			0.030937 -0.405352 0.004803
			0.025012 -0.399990 0.015334
			0.019193 -0.394771 0.025283
			0.017476 -0.402297 0.028361
			0.012513 -0.397918 0.035309
			0.003991 -0.394027 0.036700
			-0.000731 -0.391301 0.025563
			-0.002587 -0.392524 0.016265
			-0.004188 -0.394464 0.001704
			-0.021463 -0.397000 -0.026529
			-0.014955 -0.402755 -0.034744
			-0.022221 -0.395546 -0.020772
			-0.013923 -0.400649 -0.005838
			-0.020117 -0.397443 -0.010971
			-0.007378 -0.406224 -0.037212
			0.002904 -0.408443 -0.035073
			-0.004505 -0.400066 0.001312
			0.012919 -0.411899 -0.031310
			0.020188 -0.413354 -0.029821
			0.027154 -0.414204 -0.025072
			0.026517 -0.413645 -0.013166
			0.022964 -0.412977 -0.002275
			0.027622 -0.413810 0.003582
			0.031522 -0.414385 0.007462
			0.028472 -0.410568 0.013660
			0.023784 -0.407738 0.019004
			0.014953 -0.409421 0.029262
			0.007528 -0.402633 0.037182
			-0.006504 -0.397554 0.036131
			-0.015262 -0.394122 0.028821
			-0.003372 -0.393543 0.028234
			-0.010664 -0.392955 0.019385
			-0.009293 -0.398362 0.013237
			-0.025788 -0.406220 -0.028531
			-0.026562 -0.404414 -0.021903
			-0.017150 -0.410292 -0.030078
			-0.023929 -0.405472 -0.012812
			-0.005745 -0.408388 -0.006459
			-0.019381 -0.408765 -0.008015
			-0.011088 -0.413578 -0.032291
			-0.001297 -0.416642 -0.032549
			-0.002756 -0.408863 0.008994
			0.001761 -0.410554 0.001077
			0.012457 -0.417720 -0.029992
			0.019106 -0.421304 -0.027487
			0.019503 -0.421241 -0.016238
			0.016485 -0.417887 -0.006102
			0.018546 -0.418868 0.002281
			0.027241 -0.421107 0.009300
			0.026167 -0.417231 0.016482
			0.020696 -0.413299 0.020939
			0.012364 -0.414317 0.029834
			0.002611 -0.411863 0.035701
			-0.007323 -0.409211 0.036727
			-0.020502 -0.408518 0.034716
			-0.018085 -0.395822 0.022000
			-0.018085 -0.403336 0.014060
			-0.025572 -0.412954 -0.027018
			-0.025598 -0.410552 -0.018502
			-0.020256 -0.417224 -0.031247
			-0.018215 -0.415397 -0.011927
			-0.008377 -0.416280 -0.007702
			-0.011891 -0.422335 -0.032313
			0.001606 -0.423059 -0.030724
			-0.014689 -0.415554 0.014649
			-0.019605 -0.409831 0.015230
			-0.006135 -0.422000 0.013654
			0.004863 -0.416357 0.000156
			0.004378 -0.417706 -0.006591
			0.009788 -0.423568 -0.026994
			0.010919 -0.424598 -0.019011
			0.010669 -0.418415 -0.001123
			0.009436 -0.421177 -0.010422
			0.011974 -0.421603 0.004025
			0.017534 -0.425625 0.011361
			0.020863 -0.425175 0.020481
			0.016302 -0.418886 0.024308
			0.008886 -0.420808 0.028776
			0.002974 -0.417849 0.033779
			-0.007648 -0.415455 0.036031
			-0.018204 -0.414476 0.034546
			-0.022947 -0.403513 0.022374
			-0.017918 -0.419300 -0.018155
			-0.012673 -0.418955 -0.012727
			-0.015483 -0.421751 -0.024342
			-0.001818 -0.420783 -0.011456
			-0.004535 -0.424534 -0.023754
			-0.015749 -0.420793 0.018731
			-0.021849 -0.415806 0.023971
			-0.005352 -0.426428 0.015793
			0.004307 -0.421652 0.006702
			0.002809 -0.424559 -0.018021
			0.007608 -0.430363 0.020285
			0.002821 -0.429172 0.015012
			0.010849 -0.428067 0.026983
			-0.005014 -0.425121 0.033969
			-0.014385 -0.422695 0.031804
			-0.016855 -0.422181 0.024777
			-0.007930 -0.422840 -0.017264
			-0.010327 -0.426908 0.021115
			-0.003086 -0.429494 0.020437
			0.000442 -0.428210 0.031026
			-0.009202 -0.427177 0.027318
		</DataArray>
	</Points>
			<Polys>
				<DataArray type="Int32" Name="connectivity" format="ascii">
					2 1 0 
					0 3 2 
					0 1 4 
					4 5 0 
					5 3 0 
					6 1 2 
					7 1 6 
					8 1 7 
					9 1 8 
					10 1 9 
					11 1 10 
					4 1 11 
					3 12 2 
					12 13 2 
					2 13 6 
					3 14 12 
					5 15 3 
					15 14 3 
					11 16 4 
					16 5 4 
					16 17 5 
					17 15 5 
					13 18 6 
					6 18 7 
					18 19 7 
					7 19 8 
					19 20 8 
					8 20 9 
					20 21 9 
					9 21 10 
					21 22 10 