<?xml version="1.0" encoding="utf-8"?>
<VTKFile byte_order="LittleEndian" compressor="vtkZLibDataCompressor" type="PolyData"
         version="0.1">
   <PolyData>
      <Piece NumberOfLines="0" NumberOfPoints="99" NumberOfPolys="194" NumberOfStrips="0"
             NumberOfVerts="0">
         <PointData Normals="Normals">
            <DataArray Name="Normals" NumberOfComponents="3" format="ascii" type="Float32">
-0.984280 0.011050 0.176269
-0.889975 0.310137 0.334306
-0.886128 0.142050 0.441134
-0.875364 -0.262436 0.406035
-0.699910 -0.714103 -0.013489
-0.631485 -0.579492 -0.515186
-0.898519 0.055506 -0.435410
-0.913291 0.403889 0.052658
-0.645537 0.705260 0.293071
-0.665611 0.370935 0.647587
-0.643716 0.214909 0.734468
-0.449121 -0.310887 0.837639
0.013125 -0.993433 0.113663
0.172633 -0.856752 -0.485978
-0.243129 -0.602713 -0.760016
-0.613210 0.302424 -0.729735
-0.568393 0.792868 -0.219750
-0.262769 0.935520 0.236124
-0.307473 0.393522 0.866372
-0.067519 0.210519 0.975255
0.203740 -0.594941 0.777518
0.398168 -0.917308 -0.002903
0.457610 -0.847788 -0.268047
0.241111 -0.938348 -0.247725
-0.293712 -0.770467 -0.565786
-0.209268 -0.387412 -0.897841
-0.457859 0.547910 -0.700115
-0.517300 0.825819 -0.224553
-0.127716 0.988731 -0.078105
-0.321777 0.776454 0.541829
-0.068233 0.116729 0.990817
0.300439 -0.229351 0.925816
0.572692 0.053986 0.817991
0.439573 -0.857279 0.268046
0.159001 -0.982720 -0.094760
-0.051729 -0.998325 0.025898
-0.411722 -0.858876 0.304659
-0.794617 -0.590510 -0.141003
-0.735698 -0.040305 -0.676109
-0.429338 -0.017921 -0.902966
-0.561752 0.108288 -0.820188
-0.756988 0.447975 -0.475697
-0.407856 0.896787 0.171541
-0.290660 0.942357 0.165769
-0.256521 0.965738 -0.039325
0.069622 0.827712 0.556818
-0.025508 0.247147 0.968642
-0.197544 -0.397323 0.896165
-0.185747 -0.819476 0.542178
0.141806 -0.810050 0.568955
-0.269020 -0.944656 0.187758
0.045154 -0.948716 0.312889
0.100469 -0.987746 0.119430
-0.217686 -0.379032 -0.899415
-0.157880 0.295538 -0.942195
-0.188285 -0.003522 -0.982108
-0.236394 -0.058785 -0.969877
-0.082075 0.844337 -0.529490
-0.012394 0.982001 0.188468
-0.041575 0.998387 0.038650
-0.066973 0.990301 -0.121732
0.464029 0.851134 0.245453
0.291783 0.323515 0.900111
-0.257490 -0.418525 0.870940
-0.361093 -0.759438 0.541170
-0.187001 -0.958509 0.215154
0.019261 -0.991653 -0.127493
0.244811 -0.966690 0.074687
0.637039 -0.494853 -0.591018
0.412423 0.141494 -0.899937
0.350768 0.184651 -0.918077
0.371815 -0.216600 -0.902684
0.412499 -0.018783 -0.910764
0.530909 0.610500 -0.587729
0.429044 0.902539 -0.036664
0.321411 0.945649 0.049435
0.585629 0.615431 0.527526
0.553267 0.184933 0.812217
0.495341 -0.544382 0.676968
0.289972 -0.930030 0.225745
0.292929 -0.879480 0.375111
0.406275 -0.908648 0.096435
0.187531 -0.951854 -0.242502
0.360333 -0.932306 -0.031072
0.457080 -0.756931 -0.467047
0.303022 0.164693 -0.938645
0.305328 0.298617 -0.904214
0.584993 -0.035514 -0.810260
0.716904 0.418282 -0.557754
0.561350 0.802336 -0.202837
0.367945 0.929052 -0.038450
0.456838 0.880593 0.125915
0.921099 0.263114 0.286963
0.785741 -0.618547 0.003236
0.711039 -0.375816 -0.594295
0.640610 0.465076 -0.611001
0.630212 0.736191 -0.246690
0.867628 -0.488842 -0.090859
0.934469 0.100719 -0.341500
</DataArray>
         </PointData>
         <Points>
            <DataArray NumberOfComponents="3" format="ascii" type="Float32">	-0.016208 -0.005773 0.006895
-0.013100 -0.001709 0.009422
-0.011871 -0.004263 0.011820
-0.012470 -0.009392 0.010742
-0.015162 -0.011160 0.005597
-0.017201 -0.008737 0.001646
-0.018107 -0.004306 -0.000153
-0.015985 -0.000916 0.003875
-0.006621 0.008402 0.011578
-0.003248 0.000363 0.018164
-0.001931 -0.002378 0.020730
-0.001966 -0.010315 0.020777
-0.005559 -0.013840 0.013924
-0.011611 -0.011069 0.002267
-0.014470 -0.004464 -0.003315
-0.015631 0.000903 -0.005620
-0.012028 0.006489 0.001222
0.002275 0.009072 0.015118
0.003878 0.005958 0.018239
0.003856 0.000709 0.018269
0.005003 -0.007908 0.020592
0.001012 -0.009810 0.012953
-0.001759 -0.009892 0.007632
-0.005442 -0.006355 0.000517
-0.009669 -0.002759 -0.007654
-0.011163 -0.000894 -0.010547
-0.010830 0.002795 -0.009958
-0.007494 0.006568 -0.003606
-0.002115 0.008542 0.006694
0.009065 0.010541 0.014606
0.009574 0.008107 0.015617
0.009546 0.001357 0.015656
0.010506 -0.003949 0.017571
0.009681 -0.007954 0.016043
0.004604 -0.006676 0.006279
0.001437 -0.004636 0.000169
-0.002012 -0.008159 -0.006408
-0.004960 -0.009117 -0.012055
-0.005617 -0.007122 -0.013342
-0.004497 -0.001614 -0.011268
-0.005214 0.006381 -0.012755
-0.004874 0.011758 -0.012176
-0.003053 0.012208 -0.008686
0.000687 0.009358 -0.001462
0.005220 0.009264 0.007241
0.015745 0.013197 0.013865
0.016475 0.008327 0.015333
0.015895 0.001011 0.014323
0.013147 -0.000758 0.009066
0.010755 -0.006587 0.004554
0.008755 -0.008226 0.000739
0.004217 -0.009819 -0.007955
-0.000053 -0.016224 -0.016067
-0.002178 -0.013425 -0.020184
-0.002388 -0.008552 -0.020655
-0.000802 -0.002166 -0.017698
-0.001406 0.005266 -0.018961
-0.001055 0.013894 -0.018402
0.003619 0.013113 -0.009416
0.007796 0.010954 -0.001367
0.011875 0.012608 0.006440
0.020901 0.009905 0.010276
0.022386 0.006290 0.013179
0.022731 -0.000895 0.013942
0.019269 -0.007106 0.007380
0.017841 -0.010241 0.004683
0.013871 -0.007268 -0.002984
0.008386 -0.006681 -0.013521
0.005527 -0.007763 -0.019002
0.005855 -0.005011 -0.018407
0.006587 -0.002194 -0.017038
0.005995 0.000865 -0.018219
0.005270 0.007109 -0.019697
0.005725 0.012550 -0.018897
0.006592 0.012555 -0.017234
0.012156 0.010656 -0.006524
0.025878 0.006111 0.006358
0.027952 -0.002124 0.010452
0.027818 -0.006313 0.010255
0.026136 -0.008386 0.007051
0.024692 -0.008646 0.004281
0.023297 -0.010781 0.001632
0.020962 -0.009610 -0.002864
0.014739 -0.006527 -0.014856
0.013669 -0.007222 -0.016903
0.013133 -0.004539 -0.017971
0.013747 -0.002472 -0.016820
0.013855 0.003153 -0.016685
0.013873 0.006965 -0.016707
0.015493 0.007665 -0.013607
0.020803 0.007388 -0.003406
0.024959 0.007167 0.004579
0.030546 0.003878 0.001821
0.026991 -0.004271 -0.004895
0.020132 -0.001069 -0.018107
0.022947 0.002451 -0.012749
0.024463 0.005710 -0.009886
0.027980 -0.002347 -0.006404
0.024117 -0.000936 -0.013839
</DataArray>
         </Points>
         <Polys>
            <DataArray Name="connectivity" format="ascii" type="Int32">
0 2 1 0 3 2 0 4 3 0 5 4 0 6 5 0 7 6 0 1 7 1 9 8 1 2 9 2 10 9 2 3 10 3 11 10 3 12 11 3 4 12 4 13 12 4 5 13 5 14 13 5 6 14 6 15 14 6 16 15 6 7 16 7 8 16 7 1 8 8 18 17 8 9 18 9 19 18 9 10 19 10 11 19 11 20 19 11 12 20 12 21 20 12 22 21 12 13 22 13 23 22 13 24 23 13 14 24 14 25 24 14 15 25 15 26 25 15 27 26 15 16 27 16 28 27 16 8 28 8 17 28 17 18 29 18 30 29 18 19 30 19 31 30 19 32 31 19 20 32 20 33 32 20 21 33 21 34 33 21 22 34 22 35 34 22 23 35 23 36 35 23 24 36 24 37 36 24 38 37 24 39 38 24 25 39 25 40 39 25 26 40 26 27 40 27 41 40 27 42 41 27 43 42 27 28 43 28 44 43 28 17 44 17 29 44 29 46 45 29 30 46 30 47 46 30 31 47 31 48 47 31 49 48 31 32 49 32 33 49 33 34 49 34 50 49 34 35 50 35 51 50 35 36 51 36 52 51 36 37 52 37 53 52 37 38 53 38 54 53 38 39 54 39 55 54 39 40 55 40 56 55 40 41 56 41 57 56 41 42 57 42 58 57 42 43 58 43 59 58 43 44 59 44 60 59 44 29 60 29 45 60 45 46 61 46 62 61 46 47 62 47 63 62 47 48 63 48 49 63 49 64 63 49 50 64 50 65 64 50 66 65 50 51 66 51 67 66 51 52 67 52 68 67 52 53 68 53 69 68 53 54 69 54 70 69 54 55 70 55 71 70 55 56 71 56 72 71 56 57 72 57 73 72 57 74 73 57 58 74 58 75 74 58 59 75 59 61 75 59 60 61 60 45 61 61 62 76 62 77 76 62 63 77 63 78 77 63 64 78 64 79 78 64 80 79 64 65 80 65 81 80 65 82 81 65 66 82 66 67 82 67 83 82 67 84 83 67 68 84 68 69 84 69 85 84 69 70 85 70 86 85 70 71 86 71 87 86 71 72 87 72 88 87 72 73 88 73 74 88 74 89 88 74 75 89 75 90 89 75 61 90 61 91 90 61 76 91 76 77 92 77 78 92 78 93 92 78 79 93 79 80 93 80 81 93 81 82 93 82 94 93 82 83 94 83 84 94 84 85 94 85 86 94 86 95 94 86 87 95 87 88 95 88 89 95 89 96 95 89 90 96 90 91 96 91 92 96 91 76 92 92 93 97 93 94 97 94 98 97 94 95 98 95 96 98 96 92 98 92 97 98 </DataArray>
            <DataArray Name="offsets" format="ascii" type="Int32">
3 6 9 12 15 18 21 24 27 30 33 36 39 42 45 48 51 54 57 60 63 66 69 72 75 78 81 84 87 90 93 96 99 102 105 108 111 114 117 120 123 126 129 132 135 138 141 144 147 150 153 156 159 162 165 168 171 174 177 180 183 186 189 192 195 198 201 204 207 210 213 216 219 222 225 228 231 234 237 240 243 246 249 252 255 258 261 264 267 270 273 276 279 282 285 288 291 294 297 300 303 306 309 312 315 318 321 324 327 330 333 336 339 342 345 348 351 354 357 360 363 366 369 372 375 378 381 384 387 390 393 396 399 402 405 408 411 414 417 420 423 426 429 432 435 438 441 444 447 450 453 456 459 462 465 468 471 474 477 480 483 486 489 492 495 498 501 504 507 510 513 516 519 522 525 528 531 534 537 540 543 546 549 552 555 558 561 564 567 570 573 576 579 582 </DataArray>
         </Polys>
      </Piece>
   </PolyData>
</VTKFile>