<?xml version="1.0" encoding="utf-8"?>
<VTKFile byte_order="LittleEndian" compressor="vtkZLibDataCompressor" type="PolyData"
         version="0.1">
   <PolyData>
      <Piece NumberOfLines="0" NumberOfPoints="456" NumberOfPolys="908" NumberOfStrips="0"
             NumberOfVerts="0">
         <PointData Normals="Normals">
            <DataArray Name="Normals" NumberOfComponents="3" format="ascii" type="Float32">
0.001802 0.770265 -0.637722
0.080536 0.341305 -0.936496
-0.261491 0.594688 -0.760242
0.294673 0.734484 -0.611311
-0.021499 0.850627 -0.525330
0.345921 0.819241 -0.457365
-0.363485 0.290920 -0.885011
-0.281156 0.020009 -0.959454
-0.049834 -0.126800 -0.990676
0.294208 0.012871 -0.955655
0.503436 0.221009 -0.835288
0.485169 0.482857 -0.729013
-0.345770 0.791739 -0.503580
-0.589916 0.520509 -0.617308
0.661767 0.557970 -0.500733
-0.060030 0.949096 -0.309212
0.286543 0.909996 -0.299666
0.603183 0.752306 -0.264964
-0.626172 0.086950 -0.774822
-0.393325 -0.236702 -0.888407
-0.019136 -0.320673 -0.946997
0.384727 -0.209864 -0.898856
0.600386 -0.073036 -0.796368
0.740571 0.202020 -0.640892
-0.390880 0.848657 -0.356363
-0.641616 0.662844 -0.385962
-0.807183 0.285337 -0.516758
0.843082 0.448514 -0.296730
-0.178313 0.981457 -0.070327
0.129993 0.990705 -0.040078
0.407588 0.913118 -0.009411
0.686181 0.726973 0.025805
-0.692318 -0.167745 -0.701824
-0.374273 -0.430478 -0.821345
0.018275 -0.517214 -0.855661
0.451235 -0.446506 -0.772670
0.741746 -0.213542 -0.635777
0.881678 0.085763 -0.463992
-0.480568 0.867476 -0.128603
-0.752529 0.622662 -0.214456
-0.917293 0.266887 -0.295541
-0.877500 -0.126968 -0.462464
0.983050 0.084345 -0.162783
0.897923 0.438573 0.037247
-0.493977 0.854538 0.160471
-0.194235 0.959109 0.205868
0.093216 0.965056 0.244904
0.401454 0.864656 0.302002
0.700688 0.623031 0.347662
-0.634975 -0.473762 -0.610210
-0.275622 -0.644378 -0.713308
0.179437 -0.686019 -0.705110
0.587405 -0.562527 -0.581824
0.862532 -0.269802 -0.428071
-0.782310 0.619270 0.067043
-0.969261 0.243692 -0.033870
-0.961837 -0.196754 -0.190150
-0.724241 -0.498459 -0.476459
0.992782 -0.104265 0.059262
0.921349 0.265987 0.283490
-0.497417 0.792744 0.352326
-0.804969 0.552242 0.216918
-0.187639 0.881658 0.432979
0.124675 0.847234 0.516382
0.422327 0.684092 0.594692
0.658318 0.411783 0.630121
-0.341981 -0.745995 -0.571437
0.156828 -0.773496 -0.614092
0.566156 -0.711792 -0.415715
0.864394 -0.466003 -0.188852
-0.976730 0.213611 0.019218
-0.968529 -0.219517 -0.117318
-0.739264 -0.618277 -0.266876
-0.327919 -0.831465 -0.448482
0.911563 -0.270542 0.309613
0.855486 0.077182 0.512041
-0.327510 0.722976 0.608312
-0.648468 0.568321 0.506460
-0.857704 0.289576 0.424841
-0.064896 0.716154 0.694919
0.224291 0.584408 0.779847
0.429830 0.345194 0.834318
0.597854 0.009791 0.801545
0.101313 -0.868247 -0.485678
0.621683 -0.703553 -0.344272
0.823470 -0.566855 -0.023919
-0.982313 0.013515 0.186759
-0.858319 -0.502964 0.101563
-0.529784 -0.848132 0.000860
-0.287800 -0.952777 -0.096886
0.706708 -0.609876 0.358630
0.725456 -0.309117 0.614947
-0.574177 0.356622 0.736981
-0.330886 0.300884 0.894418
-0.756459 0.131916 0.640599
-0.880762 -0.226682 0.415780
-0.179531 0.242025 0.953516
0.145543 0.213665 0.966004
0.434603 -0.012704 0.900533
0.578957 -0.346069 0.738272
-0.147174 -0.982971 -0.110037
0.135287 -0.989377 -0.053198
0.461124 -0.885561 0.056096
-0.723015 -0.690752 0.010505
-0.374884 -0.911240 -0.170597
-0.192345 -0.976353 -0.098681
0.487159 -0.738418 0.466278
-0.663087 0.202080 0.720749
-0.421341 0.361998 0.831522
-0.947664 -0.069673 0.311575
-0.896955 -0.401038 -0.186122
-0.091893 0.464532 0.880776
0.490090 0.209878 0.846028
0.817550 -0.189365 0.543831
0.057652 -0.997899 -0.029576
0.277703 -0.944416 0.175954
-0.430022 -0.655687 -0.620609
0.149734 -0.840468 -0.520761
0.805859 -0.513081 0.295533
-0.720678 0.643725 0.257376
-0.969378 0.234888 0.071655
-0.043201 0.926581 0.373606
-0.961265 -0.056251 -0.269825
-0.700259 -0.195003 -0.686739
0.572210 0.719875 0.392881
0.961667 0.193115 0.194685
0.974209 -0.193007 0.116898
0.654379 -0.743833 -0.136018
0.000231 -0.451309 -0.892368
0.628216 -0.481259 -0.611338
0.949493 -0.305467 -0.071780
-0.145851 0.987155 -0.065211
-0.728869 0.673207 -0.124668
-0.951319 0.295108 -0.088898
-0.961381 0.179371 -0.208742
0.519013 0.854664 0.013260
-0.835227 0.069999 -0.545432
-0.404560 -0.090469 -0.910025
0.870007 0.487822 0.071541
0.975375 -0.121857 0.183832
0.982112 -0.169571 0.081867
0.945732 -0.284516 0.156977
0.439865 -0.374278 -0.816354
0.874965 -0.264979 -0.405243
-0.060893 0.949572 -0.307580
0.537617 0.841090 -0.059459
-0.380183 0.515798 -0.767732
-0.730638 0.302884 -0.611906
-0.632632 0.548764 -0.546475
-0.776521 0.314961 -0.545724
0.806706 0.528515 0.264381
-0.763865 0.243333 -0.597746
-0.255549 0.193753 -0.947182
0.912706 -0.033668 0.407228
0.946079 -0.197739 0.256581
0.921488 -0.250648 0.296708
0.860115 -0.175777 -0.478858
0.990518 -0.073659 0.115971
0.547978 -0.281675 -0.787641
0.164688 0.905633 -0.390778
0.432818 0.876742 0.209741
0.756380 0.345204 0.555629
0.428279 0.337594 -0.838217
0.196508 -0.127384 -0.972193
0.142483 0.327131 -0.934175
-0.264765 0.414281 -0.870787
-0.647359 0.318294 -0.692542
0.855553 -0.054539 0.514835
-0.539535 0.551969 -0.635792
-0.467636 0.645749 -0.603593
0.196620 0.296361 -0.934618
0.946419 -0.090577 0.309978
0.894906 -0.176264 0.409970
0.913786 -0.171753 0.368098
0.933599 -0.126200 0.335361
0.613672 -0.244079 -0.750888
0.521684 -0.163010 -0.837421
0.926475 -0.009818 -0.376229
0.237521 0.955442 0.175256
0.418938 0.358342 0.834315
0.664550 0.023498 0.746874
0.137739 0.899362 -0.414942
0.072919 0.129094 -0.988948
-0.194807 0.103127 -0.975405
-0.550872 0.087722 -0.829967
-0.719332 0.067204 -0.691408
-0.836378 0.378026 -0.396949
0.875704 -0.240341 0.418783
0.835206 -0.096955 0.541323
-0.621842 0.558521 -0.548969
-0.222881 0.249142 -0.942471
0.627229 -0.204259 -0.751573
0.982376 0.135850 0.128386
0.911286 0.040918 0.409737
0.860480 -0.099890 0.499596
0.985605 -0.003056 -0.169039
0.543883 -0.314258 -0.778096
0.345102 -0.140170 -0.928039
0.557485 -0.000953 -0.830186
-0.016684 0.672416 0.739985
-0.346658 0.904563 0.248179
0.250623 0.241522 0.937473
0.582226 0.190640 0.790361
-0.794510 0.576462 -0.190905
-0.878558 0.016084 -0.477366
-0.938318 -0.037333 -0.343752
-0.929345 -0.219192 -0.297106
-0.961480 -0.230717 -0.149418
-0.997214 0.021301 -0.071484
0.640973 -0.349335 0.683461
0.741145 -0.158922 0.652264
-0.689605 -0.208449 -0.693537
0.296046 -0.488756 -0.820655
0.552984 -0.436744 -0.709551
0.980419 0.168221 0.102373
0.894099 0.157254 0.419354
0.728210 -0.018430 0.685106
0.862087 0.069851 -0.501923
0.202459 -0.264249 -0.942965
0.412245 -0.058501 -0.909193
-0.082868 0.428138 0.899906
-0.522019 0.567756 0.636514
-0.871786 0.364987 0.326761
0.251348 0.206846 0.945536
-0.990566 0.077776 0.112823
-0.966066 -0.076525 0.246699
-0.913221 -0.267192 0.307630
-0.927941 -0.355117 0.113215
-0.933521 -0.313732 0.173524
-0.932024 -0.354171 -0.076771
-0.900257 -0.433552 -0.039627
0.259064 -0.403444 0.877564
0.337104 -0.336443 0.879299
-0.330357 -0.773500 -0.540890
0.121825 -0.699179 -0.704490
0.951214 0.176415 0.253119
0.904180 0.142975 -0.402512
0.780418 0.071036 0.621210
0.223175 -0.129637 0.966120
0.596928 0.005425 0.802276
0.387810 -0.031418 -0.921204
-0.144283 -0.309167 -0.939999
-0.322818 0.186343 0.927936
-0.677547 0.146675 0.720706
-0.829877 0.053923 0.555335
-0.164727 -0.298401 0.940118
-0.817085 -0.207138 0.538020
-0.869764 -0.437579 0.228113
-0.749019 -0.307494 0.586871
-0.679926 -0.330564 0.654544
-0.618373 -0.740612 -0.262885
-0.907803 -0.417885 -0.035583
-0.216310 -0.386230 0.896681
0.893157 0.168960 0.416801
0.896556 0.210096 -0.389932
0.361847 0.081016 -0.928710
-0.340820 -0.213472 0.915572
0.020722 -0.098689 0.994903
0.561636 0.058371 0.825322
-0.408990 -0.147235 -0.900583
-0.672134 -0.354247 -0.650189
-0.531189 -0.213584 0.819890
-0.631357 -0.285644 0.720969
-0.896757 -0.245071 -0.368466
-0.822669 -0.253891 0.508680
0.766772 0.149214 0.624336
0.958777 0.206553 -0.195145
0.107671 0.067321 -0.991905
-0.102720 -0.084595 0.991107
0.037034 -0.060121 0.997504
-0.827573 -0.182006 -0.531033
-0.866966 -0.260179 0.425061
0.663038 0.081306 0.744157
0.980104 0.190551 -0.055562
0.200263 0.114725 -0.973002
-0.813169 -0.112362 -0.571079
-0.165647 -0.149629 0.974768
-0.917077 -0.251846 0.309100
0.651453 0.008028 0.758647
0.985762 0.132194 -0.103915
0.230590 0.099625 -0.967938
-0.831552 -0.070904 -0.550902
-0.947629 -0.181463 0.262811
-0.293201 -0.156677 0.943125
0.674489 -0.015846 0.738115
0.960117 0.122492 -0.251338
0.103919 0.126513 -0.986507
-0.858622 -0.011463 -0.512481
-0.943966 -0.126919 0.304663
-0.323975 -0.142214 0.935316
0.694622 -0.041640 0.718168
0.964716 0.094431 -0.245777
0.133284 0.126939 -0.982915
-0.847722 0.019813 -0.530071
-0.930009 -0.088763 0.356659
-0.273328 -0.143887 0.951098
0.568713 -0.092715 0.817294
0.989318 0.037496 -0.140871
0.203006 0.148306 -0.967881
-0.786299 0.078151 -0.612884
-0.952218 -0.018988 0.304829
-0.307225 -0.101487 0.946210
0.029685 -0.087777 0.995698
0.813884 -0.065576 0.577315
0.970754 0.016702 -0.239496
0.323498 0.148454 -0.934511
-0.620309 0.120937 -0.774978
-0.987900 0.047387 -0.147672
-0.693128 -0.033588 0.720032
-0.079809 -0.053645 0.995366
0.730497 -0.080354 0.678172
0.991238 -0.011776 -0.131564
0.440450 0.163378 -0.882786
-0.638088 0.191800 -0.745692
-0.957516 0.088180 -0.274568
-0.826526 0.046376 0.560984
-0.105123 0.088624 0.990502
0.668166 0.003549 0.744004
0.984896 -0.031217 -0.170307
0.655447 0.165326 -0.736924
-0.526182 0.384298 -0.758583
-0.962664 0.168434 -0.211916
-0.940786 0.193792 0.278150
-0.603696 0.536008 0.590124
0.197926 0.241797 0.949926
0.874792 0.244276 0.418412
0.965569 0.140500 -0.218945
0.800542 0.161667 -0.577059
-0.029579 0.540891 -0.840572
-0.906211 0.367711 -0.208734
-0.926382 0.355536 -0.124140
-0.432913 0.790988 0.432347
0.128323 0.407512 0.904139
-0.632234 0.738795 -0.233372
0.412952 0.199877 0.888549
0.819577 0.179284 0.544197
0.980842 0.104924 -0.164133
0.979576 0.142384 -0.141977
0.822034 0.302923 -0.482180
0.720475 0.424904 -0.548063
0.142688 0.695410 -0.704305
-0.852438 0.514110 -0.095083
-0.798028 0.599380 -0.062415
-0.763295 0.632872 -0.129823
-0.393313 0.684931 0.613331
-0.517511 0.807998 -0.281642
0.042985 0.344261 0.937890
0.319129 0.040561 0.946843
-0.641808 0.600348 -0.477143
0.417315 -0.050677 0.907348
0.909884 -0.132893 0.393002
0.919299 -0.317031 -0.233198
0.955967 -0.275303 0.101667
0.996729 0.066583 -0.045813
0.824255 0.191117 -0.532990
0.734795 0.230154 -0.638048
0.704022 0.016597 -0.709985
0.363191 0.150699 -0.919447
-0.255564 0.696544 -0.670458
-0.608865 0.776567 -0.161949
-0.586503 0.798479 0.135814
-0.874673 0.483055 -0.040062
-0.680934 0.522324 0.513329
-0.361709 0.129398 0.923267
-0.779029 0.626735 0.017786
-0.561192 0.200691 -0.802986
-0.715720 0.437285 -0.544543
-0.058361 -0.212455 0.975427
0.229220 -0.276080 0.933402
-0.955854 -0.238729 -0.171322
0.267904 -0.217028 0.938683
0.405175 -0.183231 0.895689
0.824168 -0.528380 0.203867
0.736000 -0.619969 -0.271924
0.732861 -0.656691 0.177967
0.748786 -0.379931 0.543113
0.963385 -0.202814 -0.175372
0.784645 -0.022985 -0.619519
0.763106 0.031070 -0.645527
0.610860 -0.202051 -0.765523
0.256043 -0.121217 -0.959035
-0.274930 0.194311 -0.941624
-0.464580 0.744362 -0.479677
-0.257614 0.962470 -0.085358
-0.304962 0.869490 0.388569
-0.637838 0.389982 0.664137
-0.974788 0.213043 0.066334
-0.674651 0.042659 0.736903
-0.309275 -0.139096 0.940745
-0.917624 0.039633 -0.395469
-0.514602 -0.249746 -0.820251
-0.541898 -0.151019 -0.826764
-0.086289 -0.157910 0.983676
0.149837 -0.219660 0.964001
-0.563968 -0.074166 0.822459
-0.911206 -0.401939 0.090271
0.236271 -0.242893 0.940840
0.429267 -0.672291 0.603120
0.488615 -0.860537 -0.143988
0.364479 -0.906345 -0.213761
0.315225 -0.835102 0.450819
0.667571 -0.696629 0.262787
0.748279 -0.099234 -0.655921
0.682002 -0.136847 -0.718433
0.525115 -0.270636 -0.806852
0.242453 -0.255318 -0.935964
-0.180093 -0.022591 -0.983390
-0.695472 0.160330 -0.700437
-0.634308 0.762058 0.130080
-0.505313 0.342637 0.791997
-0.862147 -0.442858 -0.246129
-0.847730 -0.319270 0.423580
-0.557615 -0.405069 0.724558
-0.637459 -0.598751 -0.484916
-0.361615 -0.535886 -0.762929
-0.133630 -0.652197 0.746178
0.171069 -0.674443 0.718235
-0.629390 -0.236008 0.740384
-0.486903 -0.234281 0.841450
-0.445025 -0.492660 0.747822
-0.569909 -0.775635 0.271282
-0.388133 -0.792595 -0.470262
0.165249 -0.971204 0.171626
0.170678 -0.967746 -0.185303
-0.042601 -0.972351 0.229604
-0.069554 -0.922806 -0.378933
0.071385 -0.838464 0.540262
0.275390 -0.890944 0.361080
0.623353 -0.657996 -0.422459
0.560971 -0.126073 -0.818179
0.432441 -0.282113 -0.856392
0.238002 -0.273281 -0.932026
-0.131094 -0.181175 -0.974674
-0.769722 -0.385874 -0.508556
-0.981272 0.074660 0.177568
-0.418906 -0.783823 -0.458409
-0.605701 -0.767033 -0.211628
-0.426410 -0.904520 -0.004301
-0.164714 -0.827014 -0.537510
-0.092421 -0.994825 0.042214
-0.860731 -0.470662 0.193955
-0.553066 -0.561434 0.615556
-0.373460 -0.687907 0.622344
-0.284494 -0.697075 0.658141
-0.051092 -0.975455 -0.214192
-0.114000 -0.863752 0.490853
0.148059 -0.985985 0.076890
0.409762 -0.459286 -0.788132
0.031087 -0.471463 -0.881338
-0.519429 -0.630680 -0.576572
-0.710903 -0.702470 -0.033951
-0.249898 -0.920025 -0.301837
-0.519729 -0.807177 0.279903
-0.217718 -0.969229 0.114864
-0.024340 -0.900412 -0.434357
-0.382915 -0.901852 -0.200099
</DataArray>
         </PointData>
         <Points>
            <DataArray NumberOfComponents="3" format="ascii" type="Float32">	-0.004253 -0.021527 -0.006345
-0.002989 -0.021338 0.004337
-0.010797 -0.020205 -0.005124
0.002792 -0.022445 -0.003921
-0.002124 -0.020264 -0.009925
0.008568 -0.020485 -0.003690
-0.015892 -0.017276 0.000291
-0.015629 -0.015319 0.009369
-0.008591 -0.014927 0.016196
0.000486 -0.019052 0.014152
0.006907 -0.019206 0.009557
0.007790 -0.021400 0.001090
-0.008782 -0.018960 -0.009441
-0.016087 -0.016077 -0.005566
0.013531 -0.018166 0.002737
-0.000097 -0.016742 -0.014810
0.007991 -0.017853 -0.010189
0.014356 -0.016500 -0.005117
-0.019773 -0.013074 0.002169
-0.017353 -0.011864 0.010722
-0.009023 -0.012474 0.018096
-0.000115 -0.015184 0.018609
0.006934 -0.015642 0.016097
0.011485 -0.016567 0.011598
-0.007570 -0.015507 -0.014797
-0.014887 -0.013180 -0.011644
-0.020521 -0.010609 -0.004600
0.018402 -0.013300 0.001488
0.001180 -0.012496 -0.018650
0.007163 -0.012518 -0.017049
0.012998 -0.012078 -0.013373
0.018893 -0.010279 -0.007212
-0.021569 -0.008301 0.006042
-0.017047 -0.008206 0.014593
-0.008253 -0.009891 0.020084
0.000932 -0.011445 0.021005
0.010028 -0.011809 0.017668
0.017638 -0.011438 0.010309
-0.006131 -0.011288 -0.018627
-0.013805 -0.009068 -0.016107
-0.020866 -0.005993 -0.008960
-0.023305 -0.004455 0.000372
0.019680 -0.008102 0.010741
0.021574 -0.008567 -0.000310
-0.005522 -0.005428 -0.021618
0.001258 -0.007195 -0.021413
0.007759 -0.007093 -0.020021
0.013678 -0.006064 -0.017091
0.020460 -0.002777 -0.009818
-0.021085 -0.003969 0.010235
-0.015282 -0.005025 0.017325
-0.006635 -0.005415 0.022333
0.004756 -0.007264 0.021979
0.012877 -0.007163 0.018673
-0.012737 -0.003329 -0.018941
-0.019922 -0.001018 -0.012020
-0.023392 0.001256 -0.001646
-0.021806 0.000709 0.008953
0.020889 -0.000824 0.010933
0.023040 -0.000667 -0.001033
-0.006351 0.000201 -0.022162
-0.014646 0.001355 -0.018005
0.001708 -0.001031 -0.022741
0.009665 -0.000256 -0.020623
0.016352 0.002125 -0.016018
0.020479 0.004746 -0.010102
-0.016163 -0.001656 0.017096
-0.006519 -0.002689 0.022834
0.005725 -0.002717 0.022671
0.015657 -0.002444 0.018013
-0.020848 0.004529 -0.009463
-0.022832 0.005487 0.000640
-0.020942 0.001558 0.011876
-0.013720 -0.000448 0.019177
0.021535 0.006751 0.006606
0.022526 0.006775 -0.001412
0.002078 0.003880 -0.022696
-0.005411 0.004419 -0.022282
-0.013213 0.006179 -0.018142
0.008301 0.005942 -0.021071
0.012719 0.007212 -0.018347
0.016134 0.010258 -0.013206
0.019101 0.013274 -0.003891
-0.002594 -0.000496 0.023565
0.008836 0.003478 0.021229
0.016768 0.005228 0.015919
-0.019494 0.008401 -0.011071
-0.021894 0.008714 -0.002486
-0.019474 0.006636 0.008312
-0.013523 0.003695 0.016062
0.014776 0.010263 0.015768
0.019028 0.013067 0.004809
-0.006014 0.009115 -0.020696
0.002014 0.009571 -0.020892
-0.012676 0.010829 -0.015139
-0.016399 0.013586 -0.008447
0.008271 0.012134 -0.018403
0.013446 0.013853 -0.013069
0.014640 0.017470 -0.006076
0.014801 0.017776 0.002974
-0.006157 0.003574 0.020563
0.000013 0.004658 0.022157
0.008711 0.007414 0.020178
-0.018161 0.011741 0.002982
-0.013773 0.009336 0.010940
-0.007744 0.008585 0.016003
0.012247 0.016465 0.011065
-0.007263 0.016398 -0.011031
0.000512 0.013763 -0.013722
-0.013570 0.018930 -0.004280
-0.014911 0.017777 0.005169
0.006139 0.016445 -0.011340
0.011931 0.019301 -0.007572
0.012494 0.020706 0.000513
-0.001049 0.009242 0.017641
0.006393 0.012139 0.016584
-0.011458 0.016310 0.011806
-0.002775 0.016405 0.015165
0.010347 0.019834 0.007748
-0.004750 0.026747 -0.010040
-0.011755 0.028431 -0.003178
0.003659 0.025056 -0.012137
-0.013950 0.026517 0.004985
-0.014162 0.026760 0.012203
0.010265 0.027704 -0.008301
0.011441 0.031018 -0.000852
0.008944 0.033016 0.006128
0.006049 0.018105 0.013277
-0.010520 0.026112 0.017000
-0.003185 0.027779 0.018501
0.004915 0.032757 0.013611
0.003617 0.031087 -0.015318
-0.004098 0.031662 -0.011332
-0.010816 0.033179 -0.003846
-0.014547 0.034429 0.004257
0.009752 0.033912 -0.013164
-0.016789 0.032884 0.014770
-0.015708 0.031592 0.018910
0.013755 0.036238 -0.008393
0.014759 0.039216 -0.002622
0.005898 0.042258 0.012354
0.010436 0.040785 0.002665
-0.006039 0.034839 0.023108
0.001564 0.038454 0.021175
0.005171 0.035852 -0.019763
0.010779 0.037535 -0.017846
-0.003883 0.036987 -0.017104
-0.007250 0.041500 -0.011052
-0.012442 0.041997 -0.002124
-0.018270 0.040534 0.009073
0.014804 0.040562 -0.014516
-0.019720 0.039571 0.018030
-0.020272 0.037661 0.024571
0.015180 0.043903 -0.010458
0.007503 0.047364 0.004887
0.011611 0.046281 -0.004517
-0.000562 0.043632 0.026337
0.004169 0.046666 0.015746
-0.011141 0.040079 0.027143
0.003917 0.039334 -0.024766
0.010687 0.042025 -0.024647
0.013578 0.046136 -0.019060
-0.010846 0.033329 -0.022855
-0.012691 0.041941 -0.017769
-0.015833 0.046110 -0.009764
-0.020443 0.045319 -0.001626
-0.021629 0.046198 0.007029
0.012096 0.050905 -0.010987
-0.022979 0.044719 0.017533
-0.024043 0.043021 0.023822
-0.024813 0.039143 0.029791
0.005925 0.054753 0.005353
0.008015 0.053907 -0.002413
0.002623 0.052848 0.023505
0.004087 0.053596 0.014340
-0.016706 0.044452 0.018142
-0.005161 0.043463 0.022231
0.000431 0.049462 0.029879
0.005437 0.042586 -0.027792
0.011424 0.050221 -0.020111
0.010155 0.054681 -0.010986
-0.009716 0.033314 -0.026507
-0.018487 0.032285 -0.023293
-0.021973 0.043063 -0.013935
-0.025113 0.046873 -0.003975
-0.026071 0.050868 0.005796
-0.027332 0.048785 0.016210
0.004299 0.060869 0.004971
0.007854 0.060175 -0.003142
-0.031601 0.043508 0.024974
-0.028206 0.043143 0.012614
-0.022319 0.040999 0.012854
0.001821 0.043357 0.032523
0.002586 0.059181 0.022143
0.003448 0.060803 0.013186
0.000997 0.040519 0.026419
-0.018336 0.039874 0.018658
-0.010784 0.038900 0.021782
-0.004769 0.038481 0.022839
0.002903 0.047142 -0.029155
-0.010362 0.039073 -0.030051
0.006424 0.054469 -0.021953
0.006738 0.060336 -0.014464
-0.020333 0.035443 -0.027254
-0.024924 0.045756 -0.015329
-0.027548 0.051281 -0.008113
-0.028143 0.056188 0.000019
-0.025806 0.056283 0.014036
-0.032149 0.043038 0.021712
0.001803 0.066332 0.002474
0.006124 0.065591 -0.005684
-0.029776 0.039830 0.014427
-0.023273 0.037269 0.013957
-0.017784 0.035780 0.020995
0.002777 0.037288 0.034436
0.000327 0.042788 0.043600
0.000375 0.067893 0.014294
0.002825 0.034436 0.028316
-0.010321 0.033246 0.022485
-0.002292 0.032716 0.023561
-0.000195 0.051661 -0.027409
-0.014047 0.046949 -0.030373
-0.020796 0.044266 -0.025747
0.003713 0.062943 -0.019230
-0.022822 0.049987 -0.020134
-0.024013 0.057456 -0.012097
-0.023710 0.061707 -0.004235
-0.024802 0.065606 0.013541
-0.026134 0.038043 0.032058
-0.023905 0.035025 0.039272
-0.031039 0.036282 0.022295
-0.002334 0.069317 0.001273
0.003975 0.068662 -0.009143
-0.027891 0.034671 0.015862
-0.018422 0.030854 0.023377
0.003716 0.030020 0.038244
0.003516 0.027963 0.028310
-0.000818 0.031739 0.046347
-0.002819 0.071623 0.009941
-0.004383 0.032870 0.051273
-0.003497 0.026777 0.023497
-0.011942 0.028231 0.023308
-0.002885 0.063480 -0.020223
-0.012155 0.060575 -0.022445
-0.018087 0.058116 -0.019724
-0.003708 0.070145 -0.008452
-0.018238 0.064176 -0.012320
-0.023297 0.033834 0.046768
-0.024731 0.041966 0.050314
-0.019306 0.068303 0.000759
-0.023502 0.030839 0.028496
-0.019961 0.023748 0.039900
-0.009440 0.070995 0.002665
0.007498 0.013805 0.036260
0.006917 0.013783 0.028864
0.000498 0.012550 0.024233
-0.010529 0.074358 0.012647
-0.010255 0.031885 0.053625
0.000132 0.013862 0.046857
-0.008377 0.011852 0.025599
-0.011534 0.020580 0.025926
-0.011118 0.068804 -0.010438
-0.018137 0.032741 0.051355
-0.014148 0.008646 0.033561
-0.014200 0.010864 0.048542
0.009279 -0.017604 0.043457
0.012532 -0.010154 0.031501
0.006143 -0.015855 0.022290
-0.007730 0.011760 0.052241
-0.003056 -0.018391 0.049799
-0.007017 -0.017667 0.029336
-0.009068 -0.019908 0.046326
0.014841 -0.024613 0.043696
0.020136 -0.021926 0.032475
0.011972 -0.022863 0.019501
0.000789 -0.026735 0.026452
0.005283 -0.027246 0.046413
-0.001484 -0.029272 0.040669
0.021051 -0.068997 0.041091
0.025453 -0.065697 0.030621
0.017442 -0.065965 0.017397
0.005737 -0.065745 0.023922
0.004423 -0.068311 0.035772
0.010536 -0.066955 0.043283
0.024134 -0.107081 0.038174
0.028215 -0.105248 0.024120
0.017551 -0.106115 0.015257
0.009164 -0.108934 0.021071
0.008330 -0.109983 0.032735
0.014295 -0.109278 0.039860
0.027814 -0.155271 0.033550
0.031067 -0.153600 0.020802
0.021501 -0.152993 0.011302
0.011759 -0.153458 0.016413
0.010687 -0.156887 0.028235
0.018053 -0.156455 0.035769
0.030284 -0.200149 0.028049
0.033044 -0.198618 0.017220
0.023371 -0.196517 0.007121
0.012423 -0.198688 0.012581
0.011991 -0.201329 0.025772
0.019733 -0.202598 0.031252
0.020154 -0.244361 0.027758
0.027769 -0.243876 0.026060
0.032660 -0.242581 0.011744
0.025994 -0.241471 0.002559
0.016483 -0.241364 0.005034
0.010379 -0.242644 0.013628
0.012353 -0.244560 0.024367
0.018365 -0.289302 0.025049
0.029195 -0.289712 0.022579
0.032446 -0.291745 0.008484
0.024448 -0.289042 -0.003474
0.014861 -0.287226 -0.000894
0.009997 -0.287634 0.009170
0.009427 -0.288484 0.020853
0.015787 -0.325431 0.024761
0.030031 -0.329516 0.019070
0.029511 -0.328877 0.002763
0.024876 -0.325552 -0.007735
0.014070 -0.322077 -0.009583
0.008003 -0.328143 0.006675
0.006529 -0.325392 0.020993
0.002655 -0.379981 0.023009
0.015523 -0.381394 0.025617
0.029925 -0.386391 0.020785
0.029547 -0.384766 -0.000447
0.022030 -0.377881 -0.013768
0.012115 -0.375266 -0.018196
0.008116 -0.377884 -0.009247
0.006616 -0.380674 0.003266
-0.002897 -0.386977 0.028552
0.011980 -0.394159 0.031420
-0.000454 -0.386982 0.014488
0.022959 -0.397253 0.028606
0.035306 -0.397072 0.021105
0.032968 -0.395633 0.008448
0.031145 -0.395746 -0.001877
0.027072 -0.390989 -0.013137
0.020784 -0.387953 -0.020689
0.006791 -0.387902 -0.033406
0.011160 -0.382117 -0.023459
0.004383 -0.386023 -0.013469
0.003587 -0.387849 0.000222
-0.009434 -0.391673 0.029127
-0.009795 -0.390173 0.014384
0.002353 -0.398568 0.036067
0.010398 -0.402182 0.034107
-0.006731 -0.392187 0.009106
0.021525 -0.404413 0.029318
0.035446 -0.405787 0.021325
0.032663 -0.405177 0.008789
0.030062 -0.406264 -0.000232
0.032818 -0.405157 -0.007829
0.025956 -0.399818 -0.018001
0.019136 -0.394624 -0.027519
0.017446 -0.402156 -0.030315
0.011730 -0.397800 -0.036877
0.002937 -0.393959 -0.037526
-0.000852 -0.391272 -0.025995
-0.001801 -0.392515 -0.016571
-0.002039 -0.394480 -0.001938
-0.016769 -0.397147 0.027677
-0.009767 -0.402873 0.035207
-0.017997 -0.395692 0.022044
-0.011068 -0.400730 0.006348
-0.016787 -0.397566 0.012051
-0.002143 -0.406302 0.037033
0.007871 -0.408459 0.034121
-0.002281 -0.400084 -0.001555
0.017481 -0.411851 0.029677
0.024589 -0.413262 0.027714
0.031195 -0.414066 0.022521
0.029754 -0.413497 0.010670
0.025460 -0.412837 0.000033
0.029709 -0.413635 -0.006108
0.033345 -0.414184 -0.010227
0.029794 -0.410377 -0.016316
0.024650 -0.407569 -0.021375
0.015140 -0.409293 -0.030919
0.006830 -0.402541 -0.038298
-0.007303 -0.397547 -0.036054
-0.015521 -0.394175 -0.027941
-0.003647 -0.393526 -0.028425
-0.010118 -0.392991 -0.018940
-0.008083 -0.398395 -0.013016
-0.022408 -0.404588 0.023297
-0.021165 -0.406397 0.029793
-0.012553 -0.410420 0.030597
-0.020512 -0.405620 0.013998
-0.002882 -0.408422 0.006231
-0.016366 -0.408881 0.008787
-0.006449 -0.413673 0.032330
0.003243 -0.416680 0.031912
-0.001044 -0.408861 -0.009405
0.004058 -0.410535 -0.001843
0.016771 -0.417675 0.028481
0.023161 -0.421217 0.025633
0.022884 -0.421138 0.014379
0.019261 -0.417790 0.004385
0.020794 -0.418748 -0.004095
0.029071 -0.420928 -0.011581
0.027465 -0.417050 -0.018789
0.021598 -0.413145 -0.022962
0.012713 -0.414202 -0.031252
0.002472 -0.411800 -0.036440
-0.007632 -0.409205 -0.036730
-0.020658 -0.408592 -0.033736
-0.017667 -0.395899 -0.020933
-0.016816 -0.403420 -0.013198
-0.021820 -0.410716 0.019655
-0.021244 -0.413129 0.028080
-0.015779 -0.417373 0.031837
-0.014973 -0.415510 0.012463
-0.005442 -0.416331 0.007583
-0.007523 -0.422437 0.032296
0.005837 -0.423079 0.029917
-0.018287 -0.409922 -0.014403
-0.013221 -0.415616 -0.014291
-0.004487 -0.422012 -0.013927
0.007255 -0.416320 -0.001125
0.007211 -0.417681 0.005644
0.013777 -0.423537 0.025725
0.014433 -0.424549 0.017703
0.013143 -0.418346 -0.000209
0.012486 -0.421127 0.009177
0.014155 -0.421520 -0.005391
0.019347 -0.425500 -0.012975
0.022154 -0.425019 -0.022274
0.017173 -0.418753 -0.025937
0.009566 -0.420713 -0.029919
0.003233 -0.417783 -0.034554
-0.007621 -0.415450 -0.036092
-0.018097 -0.414535 -0.033884
-0.022322 -0.403616 -0.021101
-0.009423 -0.419038 0.012840
-0.014324 -0.419420 0.018578
-0.011563 -0.421864 0.024560
0.001318 -0.420799 0.010887
-0.000728 -0.424582 0.023307
-0.020977 -0.415899 -0.023124
-0.014416 -0.420856 -0.018401
-0.003730 -0.426432 -0.016147
0.006343 -0.421611 -0.007606
0.006280 -0.424557 0.017171
0.004537 -0.429129 -0.015807
0.009081 -0.430285 -0.021312
0.011900 -0.427962 -0.028185
-0.004435 -0.425101 -0.034302
-0.013769 -0.422733 -0.031571
-0.015841 -0.422242 -0.024399
-0.004460 -0.422900 0.017036
-0.008972 -0.426934 -0.021198
-0.001631 -0.429478 -0.020925
0.001302 -0.428160 -0.031677
-0.008172 -0.427189 -0.027455
</DataArray>
         </Points>
         <Polys>
            <DataArray Name="connectivity" format="ascii" type="Int32">