<?xml version="1.0" encoding="utf-8"?>
<VTKFile byte_order="LittleEndian" compressor="vtkZLibDataCompressor" type="PolyData"
         version="0.1">
   <PolyData>
      <Piece NumberOfLines="0" NumberOfPoints="958" NumberOfPolys="1070" NumberOfStrips="0"
             NumberOfVerts="0">
         <PointData Normals="Normals">
            <DataArray Name="Normals" NumberOfComponents="3" format="ascii" type="Float32">
0.954408 -0.193036 0.227690
0.584249 0.022610 0.811260
-0.344048 0.043771 0.937931
-0.260127 -0.132306 0.956467
0.427046 0.124970 0.895553
-0.339539 0.196987 0.919733
-0.986844 0.005020 0.161596
-0.988259 -0.000960 -0.152788
0.532847 0.640203 0.553367
-0.067679 0.810223 0.582202
0.150515 0.695381 0.702702
0.217609 0.832148 0.510074
-0.144173 0.782070 0.606285
-0.982549 -0.185578 -0.012563
0.511292 0.829329 0.225376
0.050573 0.990291 0.129482
0.277988 0.939646 0.199471
0.121475 0.981772 0.146179
0.859485 0.493427 0.133474
-0.362527 -0.907578 -0.211839
0.554940 0.831851 -0.008077
0.063277 0.962849 -0.262523
0.289797 0.875824 -0.385939
0.282840 0.930932 -0.231011
0.181144 0.900454 -0.395437
-0.898586 -0.056430 -0.435154
0.697583 0.676589 -0.235807
0.107928 0.602522 -0.790771
0.115141 -0.175437 -0.977734
0.550751 0.482419 -0.681135
0.127294 0.705287 -0.697400
-0.792229 0.251533 -0.555972
0.896934 -0.006549 -0.442116
0.071953 -0.222402 -0.972296
-0.202656 -0.354819 -0.912707
0.569532 0.220013 -0.791977
0.234615 0.271808 -0.933315
-0.791092 0.008042 -0.611644
0.688100 -0.673944 -0.268919
-0.227195 -0.677463 -0.699590
-0.449774 -0.080289 -0.889526
0.613233 -0.107330 -0.782576
0.216189 -0.372191 -0.902628
-0.840716 -0.198314 -0.503853
0.538443 -0.842453 -0.018775
-0.483980 -0.863457 -0.142144
-0.594713 -0.727808 -0.341484
0.475801 -0.834669 -0.277384
0.101046 -0.947974 -0.301887
-0.858687 -0.430740 -0.277706
0.491409 -0.836519 0.242392
-0.475218 -0.876492 0.077002
-0.552435 -0.833236 0.023105
0.365012 -0.900875 0.234927
0.005464 -0.980964 0.194112
-0.890457 -0.449532 -0.070760
0.520605 -0.611411 0.595942
-0.457867 -0.742252 0.489306
-0.498302 -0.772650 0.393329
0.396585 -0.671079 0.626398
-0.094760 -0.763971 0.638255
-0.947375 -0.307763 0.088102
0.954525 -0.192524 0.227630
0.584260 0.022860 0.811245
-0.344115 0.043865 0.937902
-0.260423 -0.132303 0.956387
0.426837 0.124964 0.895653
-0.338963 0.196959 0.919952
-0.986782 0.004830 0.161983
-0.988259 -0.000872 -0.152786
0.532672 0.640541 0.553144
-0.067590 0.810154 0.582307
0.150177 0.695392 0.702764
0.217485 0.832137 0.510146
-0.149330 0.780705 0.606796
-0.981947 -0.188623 -0.014227
0.510984 0.829519 0.225374
0.050714 0.990262 0.129649
0.277674 0.939732 0.199503
0.121582 0.981742 0.146288
0.863520 0.487199 0.130270
-0.369810 -0.904462 -0.212577
0.554910 0.831872 -0.007968
0.063330 0.962728 -0.262954
0.289605 0.875625 -0.386537
0.283010 0.930847 -0.231149
0.176578 0.899964 -0.398604
-0.899086 -0.061335 -0.433454
0.697652 0.676481 -0.235914
0.107929 0.601618 -0.791459
0.114799 -0.176063 -0.977662
0.550856 0.482222 -0.681191
0.127505 0.705308 -0.697340
-0.791900 0.252235 -0.556122
0.896870 -0.005892 -0.442255
0.071922 -0.222342 -0.972312
-0.202831 -0.355198 -0.912521
0.569572 0.220145 -0.791912
0.234564 0.272259 -0.933196
-0.791052 0.008608 -0.611689
0.688446 -0.673530 -0.269074
-0.227448 -0.677454 -0.699516
-0.449888 -0.080739 -0.889428
0.613416 -0.107190 -0.782452
0.216041 -0.372302 -0.902617
-0.840801 -0.198426 -0.503668
0.538435 -0.842462 -0.018586
-0.484063 -0.863395 -0.142239
-0.594670 -0.727753 -0.341678
0.475976 -0.834598 -0.277294
0.101163 -0.947996 -0.301776
-0.858700 -0.430835 -0.277518
0.491362 -0.836512 0.242507
-0.475342 -0.876412 0.077145
-0.552612 -0.833114 0.023277
0.365065 -0.900791 0.235166
0.005476 -0.980925 0.194309
-0.890478 -0.449516 -0.070591
0.520623 -0.611298 0.596042
-0.458009 -0.742011 0.489538
-0.498538 -0.772400 0.393521
0.396480 -0.670961 0.626591
-0.094623 -0.763946 0.638305
-0.947250 -0.308134 0.088149
0.954434 -0.192850 0.227740
0.584305 0.022680 0.811217
-0.343987 0.042922 0.937993
-0.259991 -0.132817 0.956433
0.427045 0.124997 0.895549
-0.339960 0.197219 0.919528
-0.986893 0.005133 0.161293
-0.988273 -0.000898 -0.152693
0.532588 0.640462 0.553315
-0.067593 0.810070 0.582425
0.150294 0.695192 0.702937
0.217549 0.832111 0.510161
-0.149629 0.780985 0.606361
-0.981969 -0.188459 -0.014818
0.511105 0.829358 0.225692
0.050657 0.990272 0.129598
0.277628 0.939758 0.199442
0.121460 0.981769 0.146211
0.862434 0.489183 0.130027
-0.367207 -0.905512 -0.212622
0.554932 0.831858 -0.007992
0.063441 0.962899 -0.262298
0.289473 0.876008 -0.385766
0.282840 0.930901 -0.231137
0.179882 0.900069 -0.396885
-0.898824 -0.058556 -0.434381
0.697473 0.676700 -0.235816
0.108159 0.602750 -0.790566
0.115140 -0.175539 -0.977716
0.550734 0.482428 -0.681142
0.127525 0.705230 -0.697415
-0.792231 0.251628 -0.555926
0.896921 -0.006695 -0.442141
0.072018 -0.222490 -0.972271
-0.202522 -0.355003 -0.912665
0.569728 0.219863 -0.791878
0.234505 0.271604 -0.933402
-0.791237 0.007738 -0.611460
0.687820 -0.674264 -0.268835
-0.227250 -0.677646 -0.699395
-0.449747 -0.080173 -0.889550
0.613292 -0.107611 -0.782491
0.216248 -0.372312 -0.902563
-0.840676 -0.198511 -0.503842
0.538366 -0.842499 -0.018883
-0.483950 -0.863525 -0.141837
-0.594733 -0.727910 -0.341232
0.475718 -0.834737 -0.277321
0.101013 -0.947965 -0.301924
-0.858666 -0.430699 -0.277834
0.491312 -0.836566 0.242425
-0.475087 -0.876568 0.076954
-0.552287 -0.833333 0.023140
0.364982 -0.900860 0.235032
0.005424 -0.980967 0.194099
-0.890492 -0.449458 -0.070787
0.520378 -0.611697 0.595847
-0.457583 -0.742514 0.489173
-0.498007 -0.772697 0.393609
0.396663 -0.670902 0.626538
-0.094907 -0.763879 0.638342
-0.947469 -0.307490 0.088047
0.954458 -0.192741 0.227730
0.584302 0.023186 0.811205
-0.343938 0.043654 0.937977
-0.260170 -0.132370 0.956446
0.427166 0.124894 0.895506
-0.339799 0.196723 0.919694
-0.986872 0.005028 0.161426
-0.988258 -0.000874 -0.152789
0.532588 0.640462 0.553315
-0.067566 0.810175 0.582281
0.150265 0.695561 0.702577
0.217751 0.832171 0.509977
-0.150035 0.780701 0.606626
-0.981867 -0.188973 -0.015053
0.511105 0.829358 0.225692
0.050685 0.990262 0.129662
0.277712 0.939716 0.199525
0.121630 0.981743 0.146239
0.862484 0.489235 0.129504
-0.366794 -0.905629 -0.212833
0.554931 0.831858 -0.008026
0.063380 0.962808 -0.262646
0.289561 0.875834 -0.386095
0.282892 0.930903 -0.231067
0.180820 0.900082 -0.396430
-0.898623 -0.057764 -0.434902
0.697511 0.676631 -0.235901
0.107851 0.602195 -0.791030
0.114775 -0.175684 -0.977733
0.550748 0.482506 -0.681076
0.127621 0.705265 -0.697362
-0.792080 0.251418 -0.556236
0.896889 -0.006812 -0.442203
0.071734 -0.222779 -0.972226
-0.202937 -0.355190 -0.912500
0.569534 0.220178 -0.791930
0.234487 0.272297 -0.933204
-0.791118 0.008136 -0.611609
0.687803 -0.674270 -0.268862
-0.227292 -0.677716 -0.699313
-0.449869 -0.080591 -0.889451
0.613301 -0.107341 -0.782522
0.216110 -0.372061 -0.902700
-0.840862 -0.198034 -0.503720
0.538383 -0.842489 -0.018881
-0.484146 -0.863337 -0.142306
-0.594866 -0.727602 -0.341658
0.475807 -0.834695 -0.277295
0.101118 -0.948003 -0.301770
-0.858670 -0.430769 -0.277713
0.491385 -0.836522 0.242427
-0.475097 -0.876559 0.076991
-0.552347 -0.833292 0.023165
0.365047 -0.900820 0.235084
0.005646 -0.980953 0.194161
-0.890462 -0.449513 -0.070823
0.520610 -0.611285 0.596067
-0.457566 -0.742409 0.489348
-0.497927 -0.772901 0.393310
0.396500 -0.671118 0.626409
-0.094834 -0.763811 0.638435
-0.947444 -0.307542 0.088138
0.954470 -0.192554 0.227838
0.584119 0.022341 0.811360
-0.344207 0.043100 0.937904
-0.260260 -0.132650 0.956383
0.426950 0.124995 0.895595
-0.339222 0.197240 0.919796
-0.986806 0.005235 0.161822
-0.988248 -0.000757 -0.152855
0.532452 0.640749 0.553114
-0.067628 0.810058 0.582436
0.150253 0.695219 0.702919
0.217503 0.832147 0.510122
-0.149622 0.780866 0.606516
-0.981927 -0.188701 -0.014550
0.510807 0.829637 0.225344
0.050671 0.990272 0.129592
0.277682 0.939747 0.199422
0.121587 0.981750 0.146233
0.863358 0.487503 0.130211
-0.369370 -0.904628 -0.212638
0.554883 0.831891 -0.007940
0.063441 0.962899 -0.262298
0.289467 0.875922 -0.385965
0.282861 0.930864 -0.231260
0.177466 0.900063 -0.397985
-0.899018 -0.060592 -0.433699
0.697533 0.676604 -0.235913
0.108137 0.602565 -0.790710
0.115108 -0.175054 -0.977807
0.550493 0.482367 -0.681381
0.127490 0.705358 -0.697292
-0.791999 0.252070 -0.556057
0.896861 -0.005996 -0.442272
0.071787 -0.223349 -0.972091
-0.202441 -0.355783 -0.912379
0.569516 0.220079 -0.791970
0.234271 0.271875 -0.933382
-0.791164 0.008235 -0.611548
0.688312 -0.673709 -0.268968
-0.227378 -0.677968 -0.699041
-0.450008 -0.081825 -0.889268
0.613341 -0.107649 -0.782448
0.216017 -0.372437 -0.902567
-0.840801 -0.198426 -0.503668
0.538442 -0.842458 -0.018563
-0.484081 -0.863393 -0.142189
-0.594800 -0.727788 -0.341375
0.475724 -0.834781 -0.277178
0.101203 -0.947987 -0.301794
-0.858651 -0.430813 -0.277702
0.491273 -0.836515 0.242680
-0.475726 -0.876205 0.077127
-0.552923 -0.832910 0.023178
0.365005 -0.900834 0.235093
0.005565 -0.980943 0.194218
-0.890470 -0.449504 -0.070779
0.520250 -0.611723 0.595932
-0.458341 -0.741948 0.489323
-0.498796 -0.772243 0.393501
0.396564 -0.670999 0.626496
-0.094656 -0.763901 0.638353
-0.947392 -0.307682 0.088206
0.950051 -0.211869 0.229160
0.777182 -0.099361 0.621382
0.070507 -0.068497 0.995157
-0.231007 -0.143769 0.962271
-0.119036 -0.132093 0.984064
0.049009 -0.041444 0.997938
-0.337267 0.021416 0.941165
-0.966047 0.033594 0.256175
-0.983849 0.047624 -0.172547
0.815081 0.206819 0.541174
0.197989 0.537485 0.819701
-0.112763 0.485559 0.866900
-0.106243 0.499455 0.859800
-0.045672 0.600057 0.798652
-0.298598 0.658268 0.691030
-0.882971 0.413109 0.222943
0.875318 0.369725 0.311645
0.308336 0.886425 0.345225
0.022779 0.933577 0.357652
-0.020576 0.938745 0.343999
-0.033526 0.958371 0.283551
-0.220213 0.951102 0.216591
-0.792332 0.610075 0.004369
0.929723 0.368044 0.012593
0.356728 0.832705 -0.423494
0.065393 0.771285 -0.633122
0.188207 0.819537 -0.541238
0.242526 0.882343 -0.403300
-0.044537 0.917024 -0.396338
-0.762220 0.554865 -0.333387
0.960255 0.184153 -0.209759
0.242215 0.053359 -0.968754
-0.084702 -0.383096 -0.919817
0.331666 -0.173363 -0.927331
0.564110 0.177193 -0.806463
0.171514 0.380611 -0.908690
-0.764955 0.269802 -0.584851
0.957543 -0.123284 -0.260599
0.360143 0.005537 -0.932881
-0.071397 0.002687 -0.997444
0.340345 -0.057657 -0.938531
0.562442 -0.062411 -0.824478
0.185575 -0.022872 -0.982364
-0.775200 0.030312 -0.630988
0.909248 -0.396246 -0.127504
0.499758 -0.031799 -0.865581
0.090880 0.360492 -0.928325
0.265077 0.087290 -0.960268
0.473191 -0.268518 -0.839040
0.067930 -0.387593 -0.919324
-0.816744 -0.180235 -0.548128
0.853931 -0.516908 0.060059
0.359640 -0.831338 -0.423717
-0.063397 -0.754855 -0.652820
0.173655 -0.835931 -0.520638
0.362310 -0.863554 -0.350721
-0.085872 -0.910998 -0.403372
-0.867016 -0.389797 -0.310389
0.806067 -0.538254 0.246047
0.145884 -0.948122 0.282458
-0.201854 -0.957941 0.203971
0.024246 -0.968273 0.248716
0.229579 -0.926817 0.297160
-0.196380 -0.952881 0.231200
-0.905887 -0.419890 -0.055338
0.770940 -0.418754 0.479892
0.054510 -0.656729 0.752154
-0.253446 -0.690334 0.677646
-0.064555 -0.689314 0.721581
0.142041 -0.631234 0.762475
-0.291596 -0.645219 0.706162
-0.949234 -0.287311 0.128086
0.950092 -0.211634 0.229209
0.777049 -0.099300 0.621559
0.070399 -0.068619 0.995156
-0.231105 -0.143849 0.962236
-0.118961 -0.132201 0.984059
0.048962 -0.041544 0.997936
-0.337406 0.021436 0.941115
-0.965997 0.033710 0.256348
-0.983845 0.047619 -0.172574
0.814983 0.207133 0.541201
0.198054 0.537487 0.819685
-0.112725 0.485388 0.867002
-0.106209 0.499212 0.859946
-0.045703 0.599861 0.798798
-0.298622 0.657913 0.691358
-0.883071 0.412688 0.223327
0.875177 0.370146 0.311540
0.308321 0.886482 0.345091
0.022804 0.933591 0.357613
-0.020486 0.938745 0.344004
-0.033342 0.958342 0.283670
-0.220072 0.951068 0.216881
-0.792411 0.609971 0.004506
0.929645 0.368247 0.012448
0.356668 0.832617 -0.423717
0.065250 0.771328 -0.633084
0.188411 0.819667 -0.540968
0.242551 0.882440 -0.403075
-0.044678 0.917010 -0.396353
-0.762216 0.554789 -0.333520
0.960206 0.184223 -0.209920
0.242064 0.053262 -0.968797
-0.084883 -0.382985 -0.919846
0.331931 -0.173054 -0.927294
0.564085 0.177595 -0.806392
0.171168 0.380787 -0.908682
-0.764986 0.269666 -0.584873
0.957534 -0.123292 -0.260629
0.360277 0.005648 -0.932828
-0.071436 0.002770 -0.997441
0.340536 -0.057666 -0.938461
0.562473 -0.062327 -0.824463
0.185602 -0.022450 -0.982368
-0.775033 0.030803 -0.631170
0.909224 -0.396226 -0.127735
0.499848 -0.031854 -0.865528
0.090995 0.360584 -0.928277
0.265178 0.087104 -0.960257
0.473300 -0.268709 -0.838918
0.068430 -0.387291 -0.919415
-0.816689 -0.179895 -0.548321
0.853992 -0.516824 0.059925
0.359572 -0.831306 -0.423839
-0.063399 -0.754718 -0.652979
0.173645 -0.836006 -0.520521
0.362352 -0.863624 -0.350505
-0.085681 -0.911033 -0.403334
-0.867039 -0.389912 -0.310181
0.806208 -0.537970 0.246206
0.145972 -0.948086 0.282532
-0.202045 -0.957907 0.203943
0.024278 -0.968267 0.248735
0.229657 -0.926768 0.297253
-0.196338 -0.952883 0.231227
-0.905840 -0.419973 -0.055465
0.770988 -0.418513 0.480025
0.054525 -0.656584 0.752280
-0.253697 -0.690160 0.677729
-0.064529 -0.689166 0.721725
0.142156 -0.631122 0.762546
-0.291496 -0.645117 0.706296
-0.949302 -0.287120 0.128018
0.955445 -0.191912 0.224264
0.794118 -0.089316 0.601165
0.090742 -0.069375 0.993455
-0.237498 -0.143685 0.960703
-0.113369 -0.132162 0.984724
0.072006 -0.040454 0.996583
-0.346936 0.024366 0.937572
-0.971659 0.032157 0.234190
-0.984034 0.043151 -0.172670
0.828731 0.202958 0.521549
0.227587 0.529963 0.816911
-0.108548 0.485142 0.867672
-0.101491 0.499136 0.860559
-0.035516 0.599595 0.799515
-0.313905 0.657606 0.684849
-0.893953 0.395925 0.209981
0.883271 0.357775 0.303034
0.340272 0.873879 0.347205
0.031985 0.932716 0.359191
-0.016330 0.938500 0.344893
-0.031765 0.958317 0.283935
-0.238422 0.947654 0.212384
-0.805507 0.592587 0.000366
0.934388 0.355755 0.018892
0.380609 0.825661 -0.416439
0.060969 0.771942 -0.632762
0.197719 0.819120 -0.538469
0.258904 0.880491 -0.397121
-0.056786 0.916658 -0.395618
-0.776434 0.536449 -0.330716
0.964045 0.179459 -0.195991
0.246999 0.053608 -0.967532
-0.107164 -0.377747 -0.919686
0.347786 -0.172781 -0.921516
0.595855 0.175813 -0.783611
0.170435 0.384086 -0.907431
-0.779665 0.254407 -0.572188
0.963968 -0.109522 -0.242425
0.376389 0.015114 -0.926338
-0.092206 0.012347 -0.995663
0.357149 -0.056103 -0.932361
0.594154 -0.060261 -0.802091
0.185547 -0.022726 -0.982372
-0.789056 0.027044 -0.613726
0.923867 -0.365656 -0.112984
0.520613 -0.020290 -0.853552
0.083008 0.360669 -0.928993
0.274965 0.087770 -0.957440
0.501383 -0.265113 -0.823608
0.063488 -0.387284 -0.919772
-0.829515 -0.168261 -0.532535
0.873034 -0.483039 0.066970
0.375971 -0.824297 -0.423297
-0.081685 -0.751108 -0.655107
0.182285 -0.835043 -0.519111
0.390010 -0.854934 -0.342024
-0.092969 -0.909899 -0.404277
-0.878608 -0.367714 -0.304687
0.826970 -0.505649 0.245846
0.156596 -0.945724 0.284750
-0.218597 -0.954972 0.200608
0.031451 -0.967712 0.250089
0.256937 -0.918688 0.299994
-0.203493 -0.951715 0.229846
-0.916122 -0.396026 -0.062318
0.790862 -0.393128 0.469027
0.067358 -0.654785 0.752808
-0.267004 -0.689092 0.673692
-0.057986 -0.688919 0.722515
0.169386 -0.625849 0.761329
-0.298741 -0.644216 0.704087
-0.956549 -0.269706 0.110783
0.961088 -0.173470 0.214982
0.826780 -0.079415 0.556892
0.132460 -0.075795 0.988286
-0.250990 -0.154817 0.955529
-0.099436 -0.143333 0.984667
0.124215 -0.041570 0.991384
-0.365369 0.033691 0.930253
-0.981814 0.032750 0.186999
-0.984192 0.038507 -0.172866
0.853809 0.204475 0.478749
0.279033 0.546395 0.789679
-0.098794 0.514552 0.851749
-0.088417 0.529241 0.843852
-0.008900 0.628977 0.777373
-0.331344 0.687091 0.646619
-0.905993 0.386229 0.173215
0.894242 0.346632 0.283157
0.378768 0.865429 0.327976
0.047425 0.940427 0.336673
-0.007004 0.946823 0.321680
-0.025024 0.964602 0.262521
-0.254652 0.948777 0.187017
-0.815955 0.577924 -0.014860
0.937674 0.345565 0.036781
0.397622 0.829575 -0.392048
0.043854 0.780496 -0.623621
0.210508 0.828246 -0.519321
0.281767 0.887006 -0.365826
-0.073514 0.926022 -0.370242
-0.793018 0.520951 -0.315804
0.970630 0.179270 -0.160438
0.260739 0.068087 -0.963005
-0.151468 -0.380310 -0.912372
0.384368 -0.176989 -0.906055
0.660798 0.185200 -0.727356
0.165778 0.419011 -0.892719
-0.806952 0.244449 -0.537655
0.974390 -0.096118 -0.203289
0.428436 0.034226 -0.902924
-0.138616 0.034847 -0.989733
0.399080 -0.056802 -0.915155
0.659622 -0.061128 -0.749108
0.184875 -0.025718 -0.982426
-0.817456 0.023380 -0.575516
0.937766 -0.337753 -0.080738
0.560578 -0.009382 -0.828048
0.063270 0.375482 -0.924667
0.298079 0.088496 -0.950430
0.558344 -0.276737 -0.782093
0.052526 -0.416420 -0.907654
-0.854067 -0.159796 -0.495010
0.889137 -0.450502 0.080519
0.385944 -0.826034 -0.410749
-0.108612 -0.753040 -0.648949
0.190535 -0.844598 -0.500351
0.420181 -0.853476 -0.308264
-0.104133 -0.919913 -0.378044
-0.892530 -0.347487 -0.287477
0.848049 -0.474390 0.236149
0.170099 -0.949206 0.264717
-0.234129 -0.956005 0.176743
0.043387 -0.971950 0.231153
0.291786 -0.913959 0.282030
-0.205212 -0.956701 0.206424
-0.924390 -0.373387 -0.078006
0.819136 -0.371928 0.436676
0.091942 -0.682878 0.724723
-0.284528 -0.715742 0.637775
-0.041224 -0.718193 0.694622
0.220911 -0.645957 0.730711
-0.301985 -0.676706 0.671472
-0.964112 -0.255559 0.071958
0.869246 -0.493035 0.036443
0.516339 -0.290710 0.805532
-0.157250 -0.053672 0.986099
-0.147547 -0.235876 0.960517
0.077102 -0.196927 0.977382
-0.092062 -0.000557 0.995753
-0.759879 0.098951 0.642490
-0.993765 0.108038 -0.027559
-0.992634 0.079038 -0.091815
0.656257 0.523698 0.543201
0.066677 0.856974 0.511028
0.177420 0.746072 0.641793
0.206157 0.775493 0.596750
0.079871 0.874138 0.479065
-0.254122 0.786041 0.563525
-0.975782 0.166942 0.141348
0.699196 0.677660 0.227820
0.146795 0.981326 0.124300
0.311972 0.926677 0.209626
0.230407 0.959228 0.163688
0.107939 0.989461 0.096521
0.060173 0.980156 0.188876
-0.889484 0.455676 0.034316
0.757728 0.644272 -0.103742
0.172224 0.960023 -0.220667
0.324970 0.885825 -0.331222
0.326888 0.906030 -0.268800
0.225252 0.956666 -0.184531
0.031656 0.958891 -0.282003
-0.895358 0.315821 -0.313993
0.761576 0.383672 -0.522301
0.066684 0.635267 -0.769408
0.103288 0.320913 -0.941460
0.449941 0.458381 -0.766447
0.446897 0.662858 -0.600752
-0.132356 0.592964 -0.794277
-0.940114 0.028036 -0.339707
0.651687 -0.254333 -0.714576
-0.181813 -0.238590 -0.953949
-0.230732 -0.487855 -0.841879
0.388426 -0.317988 -0.864875
0.547688 0.000375 -0.836683
-0.137240 -0.009982 -0.990487
-0.951010 -0.023548 -0.308262
0.390069 -0.808641 -0.440394
-0.362543 -0.806631 -0.466807
-0.467130 -0.848539 -0.248539
0.143550 -0.878630 -0.455415
0.458053 -0.619914 -0.637099
-0.032129 -0.567182 -0.822966
-0.944023 -0.035264 -0.327989
0.242577 -0.965206 -0.097640
-0.461361 -0.879150 -0.119335
-0.551643 -0.834077 0.002274
-0.002557 -0.997072 -0.076428
0.338250 -0.920130 -0.197350
-0.073296 -0.944647 -0.319795
-0.962399 -0.136838 -0.234657
0.183694 -0.979722 0.080011
-0.341626 -0.938901 -0.041919
-0.379957 -0.908928 -0.171704
-0.031214 -0.998600 -0.042710
0.111431 -0.986323 0.121449
-0.329644 -0.938772 0.100211
-0.988282 -0.089683 -0.123515
0.217968 -0.906685 0.361127
-0.224751 -0.914103 0.337495
-0.244707 -0.960048 0.135742
-0.054627 -0.963065 0.263671
-0.122494 -0.880312 0.458308
-0.699643 -0.630419 0.336262
-0.989596 0.090467 -0.111871
0.818028 -0.512712 0.260686
0.615480 -0.313282 0.723214
-0.051734 -0.083165 0.995192
-0.224649 -0.125733 0.966294
-0.166873 -0.124299 0.978112
-0.068554 -0.060551 0.995808
-0.269688 0.025429 0.962612
-0.903905 0.194110 0.381152
-0.952305 0.255964 -0.166127
0.736166 0.025095 0.676336
0.134672 0.492217 0.859992
-0.056004 0.445773 0.893392
-0.050831 0.458195 0.887397
0.001314 0.552935 0.833224
-0.120561 0.635682 0.762479
-0.720714 0.622036 0.306010
0.889191 0.227913 0.396731
0.311364 0.870257 0.381715
0.138868 0.904221 0.403857
0.116314 0.912044 0.393251
0.117710 0.935307 0.333685
0.017332 0.958481 0.284628
-0.590375 0.805523 0.050901
0.973541 0.228189 -0.012139
0.394827 0.804634 -0.443482
0.221984 0.754839 -0.617204
0.287197 0.790594 -0.540813
0.320400 0.848443 -0.421294
0.165382 0.904773 -0.392473
-0.560769 0.762402 -0.322927
0.964029 0.017923 -0.265191
0.214954 0.030382 -0.976151
-0.038435 -0.360023 -0.932151
0.224084 -0.180756 -0.957661
0.415587 0.126954 -0.900650
0.230744 0.335789 -0.913238
-0.604565 0.488554 -0.629139
0.859518 -0.373047 -0.349377
0.258971 -0.043104 -0.964923
0.034984 -0.011121 -0.999326
0.247177 -0.071739 -0.966311
0.375320 -0.100927 -0.921384
0.178683 -0.021702 -0.983667
-0.677697 0.196982 -0.708466
0.677474 -0.702417 -0.218264
0.355347 -0.101994 -0.929153
0.187020 0.345609 -0.919553
0.233497 0.076111 -0.969374
0.285432 -0.286217 -0.914663
0.043150 -0.347974 -0.936511
-0.767627 -0.087810 -0.634853
0.583993 -0.811756 -0.002304
0.118040 -0.871730 -0.475556
-0.112854 -0.731729 -0.672188
-0.001771 -0.823363 -0.567512
0.089196 -0.896784 -0.433384
-0.183910 -0.874800 -0.448221
-0.869352 -0.340739 -0.357943
0.530003 -0.818407 0.222050
-0.088021 -0.960594 0.263651
-0.298822 -0.930891 0.210113
-0.174320 -0.956019 0.235883
-0.056856 -0.959353 0.276423
-0.313260 -0.919987 0.235569
-0.924374 -0.380672 -0.024926
0.528393 -0.671466 0.519552
-0.134505 -0.643752 0.753321
-0.311198 -0.641855 0.700840
-0.211615 -0.655057 0.725340
-0.096375 -0.633215 0.767952
-0.345449 -0.588800 0.730739
-0.950820 -0.215041 0.222930
0.836849 -0.484951 0.253980
0.637205 -0.298707 0.710454
-0.038381 -0.085757 0.995577
-0.227946 -0.124922 0.965627
-0.163946 -0.124702 0.978556
-0.056225 -0.062313 0.996472
-0.278255 0.028120 0.960095
-0.910402 0.191443 0.366767
-0.954276 0.248138 -0.166691
0.752991 0.033131 0.657197
0.153567 0.486166 0.860267
-0.053815 0.445207 0.893809
-0.048365 0.457722 0.887779
0.006560 0.551915 0.833875
-0.130132 0.637174 0.759655
-0.735917 0.606558 0.300855
0.894508 0.229146 0.383859
0.332059 0.861592 0.383922
0.143828 0.903022 0.404802
0.118607 0.911593 0.393612
0.118811 0.935101 0.333872
0.006653 0.959269 0.282415
-0.607044 0.793139 0.049269
0.973529 0.228378 -0.009193
0.410648 0.798952 -0.439368
0.219714 0.755476 -0.617237
0.292317 0.789685 -0.539396
0.329782 0.846227 -0.418503
0.158470 0.905918 -0.392683
-0.577599 0.748777 -0.325133
0.964936 0.020682 -0.261670
0.218733 0.029706 -0.975333
-0.051835 -0.355708 -0.933159
0.232998 -0.182114 -0.955273
0.437084 0.122591 -0.891027
0.231388 0.336923 -0.912657
-0.620768 0.471895 -0.626069
0.871374 -0.352876 -0.340859
0.268740 -0.042308 -0.962283
0.021889 -0.005894 -0.999743
0.256205 -0.073386 -0.963833
0.396709 -0.104520 -0.911975
0.179357 -0.021749 -0.983544
-0.687834 0.192662 -0.699832
0.709564 -0.672489 -0.210421
0.373620 -0.100160 -0.922158
0.183030 0.346243 -0.920117
0.238502 0.075191 -0.968227
0.302537 -0.288392 -0.908461
0.038320 -0.346556 -0.937246
-0.775720 -0.075427 -0.626554
0.618281 -0.785950 0.003329
0.134670 -0.870579 -0.473241
-0.122804 -0.728547 -0.673898
0.003009 -0.823871 -0.566769
0.106843 -0.896949 -0.429030
-0.192387 -0.872241 -0.449647
-0.877906 -0.321812 -0.354568
0.563112 -0.794690 0.226656
-0.076901 -0.960915 0.265948
-0.308286 -0.928182 0.208416
-0.170304 -0.956544 0.236687
-0.039801 -0.959531 0.278776
-0.321757 -0.917468 0.233934
-0.932246 -0.360630 -0.029373
0.557090 -0.650166 0.516657
-0.123960 -0.644490 0.754497
-0.318543 -0.640000 0.699235
-0.208109 -0.655404 0.726042
-0.080442 -0.634202 0.768971
-0.354186 -0.586475 0.728422
-0.956866 -0.199169 0.211518
0.836759 -0.485076 0.254037
0.637252 -0.298383 0.710547
-0.038105 -0.085841 0.995580
-0.227903 -0.125147 0.965608
-0.164040 -0.124822 0.978525
-0.056294 -0.062397 0.996463
-0.278210 0.028008 0.960112
-0.910378 0.191408 0.366845
-0.954241 0.248209 -0.166782
0.752720 0.033103 0.657508
0.153580 0.486228 0.860230
-0.053738 0.445330 0.893753
-0.048349 0.457577 0.887854
0.006314 0.552038 0.833795
-0.130243 0.637445 0.759408
-0.735987 0.606463 0.300874
0.894352 0.229206 0.384186
0.331862 0.861695 0.383861
0.143870 0.903075 0.404670
0.118750 0.911591 0.393574
0.118538 0.935217 0.333644
0.006461 0.959364 0.282096
-0.607037 0.793150 0.049188
0.973521 0.228398 -0.009514
0.410555 0.798963 -0.439435
0.219777 0.755404 -0.617303
0.292430 0.789572 -0.539500
0.329632 0.846280 -0.418512
0.158225 0.905913 -0.392793
-0.577789 0.748465 -0.325515
0.964865 0.021001 -0.261907
0.218719 0.029809 -0.975332
-0.051742 -0.355741 -0.933151
0.232922 -0.182296 -0.955257
0.437072 0.122555 -0.891038
0.231297 0.336985 -0.912657
-0.620717 0.471706 -0.626262
0.871479 -0.352601 -0.340878
0.268915 -0.042090 -0.962244
0.022115 -0.005700 -0.999739
0.256242 -0.073037 -0.963849
0.396722 -0.104265 -0.911998
0.179353 -0.021590 -0.983548
-0.687771 0.192950 -0.699815
0.709461 -0.672696 -0.210108
0.374016 -0.100150 -0.921999
0.183140 0.346297 -0.920075
0.238596 0.075376 -0.968189
0.302617 -0.288176 -0.908503
0.038157 -0.346528 -0.937263
-0.775767 -0.075288 -0.626512
0.618150 -0.786053 0.003535
0.134967 -0.870626 -0.473069
-0.122880 -0.728581 -0.673847
0.002963 -0.823978 -0.566613
0.106903 -0.896976 -0.428958
-0.192368 -0.872242 -0.449653
-0.877905 -0.321613 -0.354751
0.563049 -0.794824 0.226343
-0.076728 -0.960964 0.265823
-0.308368 -0.928160 0.208393
-0.170302 -0.956577 0.236552
-0.039817 -0.959560 0.278673
-0.321722 -0.917460 0.234012
-0.932317 -0.360438 -0.029487
0.557215 -0.650122 0.516578
-0.123727 -0.644653 0.754396
-0.318532 -0.640163 0.699091
-0.208152 -0.655455 0.725983
-0.080447 -0.634298 0.768892
-0.354132 -0.586531 0.728404
-0.956904 -0.198867 0.211627
0.836812 -0.484999 0.254010
0.637369 -0.298113 0.710556
-0.038092 -0.085425 0.995616
-0.227898 -0.124980 0.965631
-0.163988 -0.124909 0.978522
-0.056282 -0.062488 0.996458
-0.278503 0.028335 0.960017
-0.910387 0.191854 0.366589
-0.954252 0.248312 -0.166564
0.752788 0.033629 0.657404
0.153580 0.486515 0.860068
-0.053704 0.445368 0.893735
-0.048323 0.457483 0.887904
0.006354 0.551901 0.833885
-0.130355 0.637290 0.759519
-0.735900 0.606543 0.300925
0.894318 0.229365 0.384170
0.331869 0.861650 0.383955
0.143806 0.903053 0.404740
0.118692 0.911573 0.393632
0.118667 0.935117 0.333878
0.006542 0.959260 0.282448
-0.607044 0.793128 0.049454
0.973496 0.228517 -0.009299
0.410692 0.798925 -0.439375
0.219729 0.755438 -0.617279
0.292368 0.789650 -0.539419
0.329707 0.846250 -0.418514
0.158419 0.905872 -0.392809
-0.577630 0.748728 -0.325192
0.964916 0.020946 -0.261722
0.218765 0.029642 -0.975327
-0.051842 -0.355723 -0.933153
0.233039 -0.182078 -0.955270
0.437086 0.122829 -0.890993
0.231359 0.336956 -0.912652
-0.620810 0.471871 -0.626045
0.871409 -0.352702 -0.340953
0.268715 -0.042182 -0.962296
0.021902 -0.005567 -0.999745
0.256378 -0.073034 -0.963813
0.396721 -0.104225 -0.912003
0.179354 -0.021618 -0.983547
-0.687945 0.192764 -0.699695
0.709364 -0.672730 -0.210329
0.373833 -0.100044 -0.922085
0.183161 0.346452 -0.920013
0.238629 0.075237 -0.968192
0.302470 -0.288451 -0.908465
0.038151 -0.346676 -0.937209
-0.775917 -0.075445 -0.626308
0.617996 -0.786174 0.003358
0.134851 -0.870601 -0.473148
-0.122810 -0.728558 -0.673885
0.003014 -0.823991 -0.566595
0.106781 -0.896999 -0.428942
-0.192437 -0.872276 -0.449558
-0.877905 -0.321787 -0.354592
0.562988 -0.794891 0.226259
-0.076743 -0.960994 0.265707
-0.308427 -0.928138 0.208406
-0.170316 -0.956534 0.236717
-0.039858 -0.959516 0.278821
-0.321738 -0.917451 0.234028
-0.932298 -0.360492 -0.029427
0.557193 -0.650219 0.516480
-0.123709 -0.644725 0.754338
-0.318639 -0.640082 0.699117
-0.208174 -0.655344 0.726077
-0.080426 -0.634275 0.768913
-0.354284 -0.586379 0.728452
-0.956951 -0.198664 0.211605
</DataArray>
         </PointData>
         <Points>
            <DataArray NumberOfComponents="3" format="ascii" type="Float32">	0.058865 -0.003002 -0.051878
0.057895 -0.003002 -0.045938
0.052496 -0.003002 -0.039716
0.050138 -0.003002 -0.042849
0.046226 -0.003002 -0.038764
0.043187 -0.003002 -0.031804
0.039069 -0.003002 -0.034029
0.035802 -0.003002 -0.043484
0.058113 -0.001559 -0.047729
0.051954 -0.000677 -0.043120
0.047429 -0.001198 -0.042872
0.044000 0.000084 -0.038180
0.040068 0.000604 -0.035350
0.038233 0.000084 -0.036082
0.058033 -0.001057 -0.050341
0.051117 -0.000279 -0.047332
0.044097 -0.000019 -0.044612
0.040373 0.002834 -0.041448
0.036291 0.001666 -0.040702
0.036471 0.001796 -0.040684
0.057240 -0.001057 -0.052519
0.050008 -0.000279 -0.050380
0.042882 -0.000019 -0.047951
0.037995 0.002834 -0.047981
0.034389 0.001666 -0.045929
0.034516 0.001796 -0.046056
0.056264 -0.001679 -0.054482
0.050406 -0.001039 -0.054071
0.044543 -0.001639 -0.050325
0.039246 -0.000757 -0.050763
0.034602 -0.000276 -0.050365
0.033272 -0.000517 -0.049235
0.055635 -0.003002 -0.055491
0.051245 -0.003002 -0.056553
0.047009 -0.003002 -0.050489
0.042241 -0.003002 -0.048753
0.035833 -0.003002 -0.052008
0.033203 -0.003002 -0.049189
0.055391 -0.004444 -0.054488
0.049021 -0.005767 -0.055721
0.047345 -0.004325 -0.051236
0.042106 -0.004605 -0.050083
0.035867 -0.006488 -0.052870
0.033238 -0.005527 -0.049330
0.055623 -0.005337 -0.052178
0.048095 -0.008320 -0.051329
0.048444 -0.005856 -0.049892
0.043031 -0.006763 -0.048499
0.037731 -0.010135 -0.048707
0.034490 -0.007930 -0.046130
0.056574 -0.005337 -0.049565
0.050262 -0.008320 -0.045375
0.049607 -0.005856 -0.046699
0.044564 -0.006763 -0.044289
0.040637 -0.010135 -0.040721
0.036498 -0.007930 -0.040612
0.057448 -0.004565 -0.047165
0.051955 -0.006128 -0.040968
0.050163 -0.004766 -0.043976
0.045754 -0.005447 -0.040540
0.042647 -0.007370 -0.034244
0.038269 -0.006128 -0.035987
0.068372 -0.003002 -0.024226
0.068052 -0.003002 -0.022265
0.066270 -0.003002 -0.020212
0.065493 -0.003002 -0.021246
0.064201 -0.003002 -0.019898
0.063198 -0.003002 -0.017601
0.061839 -0.003002 -0.018335
0.060761 -0.003002 -0.021455
0.068124 -0.002526 -0.022856
0.066092 -0.002235 -0.021335
0.064599 -0.002406 -0.021254
0.063466 -0.001984 -0.019705