<?xml version="1.0" encoding="utf-8"?>
<VTKFile byte_order="LittleEndian" compressor="vtkZLibDataCompressor" type="PolyData"
         version="0.1">
   <PolyData>
      <Piece NumberOfLines="0" NumberOfPoints="958" NumberOfPolys="1070" NumberOfStrips="0"
             NumberOfVerts="0">
         <PointData Normals="Normals">
            <DataArray Name="Normals" NumberOfComponents="3" format="ascii" type="Float32">
0.954408 -0.193036 -0.227690
0.606332 0.019656 -0.794969
-0.536841 -0.335837 -0.773961
-0.483721 -0.512870 -0.709210
0.430129 0.082013 -0.899034
-0.245749 0.205129 -0.947380
-0.986604 0.005186 -0.163051
-0.988259 -0.000960 0.152788
0.553206 0.624130 -0.551747
-0.283995 0.755353 -0.590583
-0.162440 0.538499 -0.826820
0.305838 0.795647 -0.522885
-0.252891 0.882062 -0.397509
-0.945075 0.315754 -0.084454
0.520382 0.822933 -0.227999
-0.025427 0.983539 -0.178898
0.154517 0.949612 -0.272691
0.197819 0.968290 -0.152585
-0.055985 0.978458 -0.198709
-0.997655 -0.061951 0.029083
0.547339 0.836760 0.015923
0.112332 0.972811 0.202535
0.376679 0.889893 0.257301
0.200048 0.944597 0.260227
0.892584 0.450495 -0.018649
-0.443595 -0.876174 -0.188530
0.677009 0.685342 0.268263
0.224765 0.654980 0.721444
0.416991 0.026387 0.908528
0.398740 0.431520 0.809195
0.302902 0.346514 0.887794
-0.860852 -0.339059 0.379437
0.874681 0.000253 0.484700
0.192472 -0.047110 0.980171
0.009623 -0.182252 0.983205
0.515036 0.200620 0.833360
0.222698 0.223523 0.948917
-0.755935 0.008873 0.654586
0.681460 -0.672307 0.289162
0.008465 -0.623626 0.781677
-0.216440 -0.171379 0.961136
0.632914 -0.103121 0.767324
0.314062 -0.366493 0.875813
-0.821054 -0.208263 0.531504
0.534643 -0.844745 0.023729
-0.289122 -0.908881 0.300573
-0.405303 -0.790323 0.459476
0.484966 -0.831615 0.270600
0.133423 -0.946727 0.293097
-0.852638 -0.439835 0.282051
0.500293 -0.831418 -0.241766
-0.530592 -0.847117 -0.029404
-0.617598 -0.786095 0.025045
0.364424 -0.901369 -0.233944
0.014666 -0.980746 -0.194735
-0.890428 -0.449595 0.070735
0.541833 -0.601028 -0.587523
-0.548234 -0.716358 -0.431590
-0.619381 -0.722236 -0.307802
0.392700 -0.673366 -0.626390
-0.073581 -0.763498 -0.641605
-0.947165 -0.308238 -0.088702
0.954525 -0.192524 -0.227630
0.606294 0.019905 -0.794992
-0.537114 -0.335556 -0.773893
-0.484071 -0.512703 -0.709092
0.429974 0.081957 -0.899114
-0.245828 0.205111 -0.947364
-0.986622 0.004956 -0.162946
-0.988259 -0.000872 0.152786
0.553000 0.624496 -0.551539
-0.284047 0.755143 -0.590827
-0.162944 0.538368 -0.826806
0.305627 0.795671 -0.522972
-0.252628 0.882118 -0.397551
-0.944978 0.316018 -0.084550
0.520069 0.823132 -0.227994
-0.025302 0.983494 -0.179166
0.154242 0.949633 -0.272776
0.197763 0.968293 -0.152636
-0.060680 0.978159 -0.198805
-0.997409 -0.065439 0.029885
0.547256 0.836815 0.015864
0.112534 0.972728 0.202821
0.376550 0.889799 0.257813
0.200259 0.944489 0.260454
0.895601 0.444307 -0.022144
-0.450562 -0.872957 -0.186925
0.677055 0.685246 0.268393
0.224838 0.654588 0.721777
0.416791 0.026406 0.908619
0.399170 0.431442 0.809025
0.297967 0.344694 0.890169
-0.862590 -0.340027 0.374593
0.874690 0.000873 0.484682
0.192558 -0.046865 0.980166
0.009770 -0.182193 0.983214
0.515339 0.200790 0.833132
0.222516 0.223909 0.948869
-0.756008 0.009469 0.654494
0.681867 -0.671888 0.289179
0.008551 -0.623709 0.781610
-0.216490 -0.171736 0.961061
0.632943 -0.103035 0.767312
0.314124 -0.366452 0.875808
-0.821027 -0.208328 0.531521
0.534660 -0.844741 0.023485
-0.289309 -0.908870 0.300427
-0.405501 -0.790192 0.459526
0.485010 -0.831601 0.270564
0.133376 -0.946767 0.292990
-0.852716 -0.439841 0.281806
0.500285 -0.831392 -0.241871
-0.530834 -0.846959 -0.029591
-0.617879 -0.785882 0.024820
0.364514 -0.901269 -0.234189
0.014765 -0.980703 -0.194944
-0.890408 -0.449663 0.070542
0.541877 -0.600889 -0.587623
-0.548234 -0.716131 -0.431968
-0.619458 -0.722033 -0.308123
0.392642 -0.673219 -0.626585
-0.073605 -0.763522 -0.641573
-0.947091 -0.308504 -0.088567
0.954434 -0.192850 -0.227740
0.606324 0.019751 -0.794973
-0.537128 -0.335915 -0.773728
-0.483774 -0.512609 -0.709362
0.430210 0.082081 -0.898990
-0.245900 0.205264 -0.947312
-0.986616 0.005266 -0.162978
-0.988273 -0.000898 0.152693
0.552882 0.624454 -0.551705
-0.283919 0.755421 -0.590532
-0.162577 0.538759 -0.826624
0.305830 0.795619 -0.522932
-0.253270 0.881997 -0.397412
-0.945161 0.315562 -0.084204
0.520201 0.822960 -0.228316
-0.025228 0.983533 -0.178958
0.154316 0.949687 -0.272547
0.197745 0.968298 -0.152627
-0.062029 0.978146 -0.198449
-0.997346 -0.066301 0.030096
0.547270 0.836805 0.015890
0.112443 0.972821 0.202424
0.376380 0.890019 0.257303
0.200175 0.944538 0.260342
0.895340 0.445009 -0.018253
-0.448829 -0.873977 -0.186326
0.676924 0.685459 0.268178
0.225142 0.655021 0.721289
0.417116 0.026130 0.908478
0.398836 0.431574 0.809119
0.301279 0.344819 0.889005
-0.861177 -0.340723 0.377203
0.874714 0.000159 0.484639
0.192542 -0.047494 0.980139
0.009650 -0.182729 0.983116
0.515196 0.200483 0.833295
0.222802 0.223293 0.948946
-0.755986 0.008528 0.654533
0.681179 -0.672614 0.289111
0.008308 -0.623895 0.781464
-0.216476 -0.171595 0.961090
0.632989 -0.103396 0.767225
0.313859 -0.366599 0.875841
-0.821151 -0.208347 0.531321
0.534602 -0.844768 0.023805
-0.289100 -0.908907 0.300516
-0.405325 -0.790305 0.459487
0.484906 -0.831674 0.270527
0.133237 -0.946738 0.293148
-0.852690 -0.439678 0.282141
0.500229 -0.831446 -0.241803
-0.530702 -0.847055 -0.029210
-0.617687 -0.786022 0.025148
0.364328 -0.901379 -0.234053
0.014519 -0.980753 -0.194713
-0.890469 -0.449509 0.070761
0.541604 -0.601317 -0.587437
-0.548155 -0.716614 -0.431267
-0.619298 -0.722256 -0.307920
0.392700 -0.673235 -0.626531
-0.073662 -0.763393 -0.641721
-0.947207 -0.308081 -0.088795
0.954458 -0.192741 -0.227730
0.606289 0.020240 -0.794987
-0.537165 -0.335489 -0.773887
-0.484078 -0.512630 -0.709140
0.430195 0.082051 -0.898999
-0.245848 0.205028 -0.947376
-0.986598 0.005274 -0.163084
-0.988258 -0.000874 0.152789
0.552882 0.624454 -0.551705
-0.284017 0.755233 -0.590726
-0.162622 0.538901 -0.826523
0.305772 0.795722 -0.522809
-0.253225 0.881926 -0.397597
-0.945147 0.315574 -0.084324
0.520201 0.822960 -0.228316
-0.025277 0.983507 -0.179094
0.154348 0.949635 -0.272709
0.197868 0.968269 -0.152654
-0.061274 0.978188 -0.198478
-0.997377 -0.065879 0.029987
0.547278 0.836799 0.015924
0.112436 0.972761 0.202715
0.376446 0.889899 0.257620
0.200148 0.944546 0.260335
0.893888 0.448066 -0.014191
-0.445254 -0.875872 -0.186001
0.676931 0.685394 0.268327
0.224689 0.654828 0.721606
0.416768 0.026545 0.908625
0.398870 0.431665 0.809053
0.305174 0.347736 0.886538
-0.860181 -0.338429 0.381516
0.874641 0.000030 0.484771
0.192288 -0.047170 0.980204
0.009602 -0.182284 0.983199
0.515135 0.200812 0.833253
0.222826 0.223916 0.948794
-0.755783 0.008981 0.654760
0.681161 -0.672620 0.289139
0.008364 -0.623951 0.781418
-0.216693 -0.171777 0.961008
0.632833 -0.103184 0.767382
0.314032 -0.366299 0.875905
-0.821188 -0.207940 0.531423
0.534619 -0.844758 0.023803
-0.289164 -0.908891 0.300501
-0.405527 -0.790222 0.459453
0.484824 -0.831715 0.270547
0.133199 -0.946777 0.293037
-0.852730 -0.439672 0.282030
0.500302 -0.831402 -0.241805
-0.530692 -0.847064 -0.029131
-0.617751 -0.785969 0.025227
0.364371 -0.901351 -0.234092
0.014690 -0.980738 -0.194774
-0.890462 -0.449517 0.070792
0.541803 -0.600916 -0.587664
-0.548294 -0.716441 -0.431377
-0.619382 -0.722376 -0.307472
0.392572 -0.673437 -0.626394
-0.073466 -0.763358 -0.641785
-0.947201 -0.308099 -0.088799
0.954470 -0.192554 -0.227838
0.606177 0.019387 -0.795094
-0.537308 -0.336110 -0.773519
-0.484114 -0.512780 -0.709006
0.430105 0.082037 -0.899044
-0.245623 0.205383 -0.947358
-0.986594 0.005382 -0.163107
-0.988248 -0.000757 0.152855
0.552790 0.624710 -0.551508
-0.283959 0.755352 -0.590602
-0.162666 0.538730 -0.826625
0.305726 0.795704 -0.522864
-0.252654 0.882153 -0.397458
-0.944991 0.315996 -0.084485
0.519890 0.823256 -0.227957
-0.025265 0.983520 -0.179028
0.154296 0.949665 -0.272633
0.197786 0.968293 -0.152609
-0.060809 0.978164 -0.198742
-0.997396 -0.065598 0.029968
0.547223 0.836837 0.015838
0.112445 0.972821 0.202424
0.376445 0.889958 0.257420
0.200172 0.944517 0.260420
0.895130 0.445377 -0.019542
-0.448876 -0.873937 -0.186397
0.677013 0.685341 0.268254
0.225055 0.654968 0.721364
0.416939 0.026790 0.908539
0.398827 0.431762 0.809023
0.300754 0.345385 0.888964
-0.861485 -0.339950 0.377196
0.874652 0.000890 0.484751
0.192617 -0.047619 0.980118
0.009948 -0.182796 0.983101
0.515115 0.200877 0.833250
0.222782 0.223596 0.948880
-0.755844 0.009036 0.654690
0.681668 -0.672042 0.289289
0.008370 -0.623592 0.781705
-0.216238 -0.172263 0.961024
0.632956 -0.103410 0.767251
0.313774 -0.366636 0.875856
-0.821125 -0.208308 0.531376
0.534643 -0.844751 0.023496
-0.289348 -0.908745 0.300764
-0.405390 -0.790231 0.459558
0.484994 -0.831672 0.270374
0.133321 -0.946755 0.293052
-0.852697 -0.439760 0.281991
0.500170 -0.831409 -0.242050
-0.530848 -0.846942 -0.029845
-0.617788 -0.785958 0.024664
0.364459 -0.901308 -0.234124
0.014835 -0.980716 -0.194874
-0.890388 -0.449677 0.070707
0.541495 -0.601333 -0.587521
-0.548319 -0.716310 -0.431562
-0.619553 -0.722014 -0.307978
0.392606 -0.673311 -0.626508
-0.073421 -0.763474 -0.641652
-0.947158 -0.308231 -0.088804
0.950051 -0.211869 -0.229160
0.794111 -0.090963 -0.600927
0.015913 -0.056274 -0.998289
-0.313554 -0.136578 -0.939697
-0.106207 -0.132303 -0.985503
0.119501 -0.055092 -0.991304
-0.339988 0.002470 -0.940427
-0.977960 0.028868 -0.206785
-0.983849 0.047624 0.172547
0.806043 0.218904 -0.549888
0.083969 0.567199 -0.819289
-0.215715 0.492774 -0.842995
-0.094834 0.498819 -0.861502
0.078469 0.572110 -0.816414
-0.282633 0.659041 -0.696982
-0.914757 0.374276 -0.152112
0.871313 0.377855 -0.313113
0.260676 0.903186 -0.341032
-0.021833 0.936608 -0.349698
-0.015633 0.938558 -0.344768
0.034358 0.951667 -0.305202
-0.202606 0.953877 -0.221517
-0.813605 0.581144 0.017848
0.930836 0.365156 -0.014343
0.451833 0.807291 0.379641
0.187726 0.779918 0.597065
0.138778 0.821604 0.552908
0.090053 0.898245 0.430170
-0.110788 0.907520 0.405135
-0.741940 0.573347 0.347560
0.961778 0.181008 0.205473
0.497823 0.068244 0.864589
0.184765 -0.350602 0.918118
0.222355 -0.169930 0.960043
0.290713 0.221961 0.930709
0.058605 0.384725 0.921169
-0.719021 0.281297 0.635516
0.950249 -0.119074 0.287832
0.369364 0.019987 0.929070
-0.026765 0.011218 0.999579
0.325500 -0.070075 0.942942
0.515703 -0.059135 0.854724
0.188376 -0.015019 0.981982
-0.746529 0.023391 0.664941
0.893930 -0.412474 0.175370
0.231037 0.061341 0.971009
-0.133214 0.453755 0.881113
0.353358 0.082533 0.931840
0.606921 -0.263972 0.749644
0.164988 -0.398815 0.902067
-0.806123 -0.187564 0.561236
0.845476 -0.532391 -0.041589
0.239526 -0.848011 0.472762
-0.184893 -0.720816 0.668011
0.213255 -0.835540 0.506355
0.425688 -0.847807 0.316248
-0.036772 -0.919026 0.392478
-0.860539 -0.398318 0.317516
0.822992 -0.517294 -0.234713
0.157263 -0.948385 -0.275380
-0.225041 -0.953639 -0.199821
0.029864 -0.968004 -0.249154
0.244253 -0.922967 -0.297445
-0.195603 -0.953475 -0.229400
-0.907630 -0.415743 0.058005
0.808553 -0.388255 -0.442154
0.077693 -0.656530 -0.750288
-0.301943 -0.681025 -0.667110
-0.052430 -0.688806 -0.723047
0.172959 -0.625570 -0.760754
-0.290063 -0.645857 -0.706210
-0.951891 -0.281731 -0.120548
0.950092 -0.211634 -0.229209
0.794098 -0.090846 -0.600962
0.015850 -0.056306 -0.998288
-0.313710 -0.136613 -0.939640
-0.106142 -0.132418 -0.985494
0.119562 -0.055197 -0.991291
-0.339829 0.002493 -0.940484
-0.977899 0.028975 -0.207060
-0.983845 0.047619 0.172574
0.805995 0.219139 -0.549863
0.083960 0.567226 -0.819272
-0.215893 0.492645 -0.843025
-0.094822 0.498580 -0.861642
0.078470 0.571930 -0.816541
-0.282799 0.658670 -0.697264
-0.914902 0.373806 -0.152391
0.871194 0.378230 -0.312990
0.260701 0.903218 -0.340928
-0.021844 0.936613 -0.349683
-0.015561 0.938559 -0.344767
0.034409 0.951636 -0.305293
-0.202697 0.953809 -0.221724
-0.813733 0.580967 0.017785
0.930847 0.365128 -0.014359
0.451997 0.807134 0.379780
0.187493 0.779961 0.597082
0.138869 0.821747 0.552674
0.090191 0.898334 0.429955
-0.110668 0.907539 0.405125
-0.741895 0.573318 0.347704
0.961821 0.180845 0.205414
0.497845 0.067962 0.864599
0.184424 -0.350490 0.918229
0.222501 -0.169583 0.960070
0.290647 0.222362 0.930634
0.058494 0.384842 0.921127
-0.718973 0.281182 0.635621
0.950225 -0.119089 0.287905
0.369342 0.020081 0.929077
-0.026974 0.011283 0.999572
0.325683 -0.070059 0.942880
0.515613 -0.058977 0.854790
0.188070 -0.014579 0.982047
-0.746494 0.023868 0.664963
0.893915 -0.412421 0.175571
0.231084 0.061438 0.970992
-0.133250 0.453944 0.881010
0.353577 0.082401 0.931769
0.606986 -0.264124 0.749538
0.164930 -0.398537 0.902201
-0.806245 -0.187185 0.561187
0.845568 -0.532251 -0.041509
0.239445 -0.847965 0.472887
-0.185102 -0.720583 0.668204
0.213385 -0.835602 0.506198
0.425774 -0.847835 0.316056
-0.036581 -0.919046 0.392449
-0.860514 -0.398550 0.317292
0.823018 -0.517151 -0.234940
0.157150 -0.948368 -0.275502
-0.225276 -0.953589 -0.199794
0.029910 -0.967996 -0.249176
0.244326 -0.922913 -0.297552
-0.195579 -0.953486 -0.229376
-0.907557 -0.415880 0.058175
0.808569 -0.388096 -0.442265
0.077732 -0.656435 -0.750367
-0.302109 -0.680858 -0.667205
-0.052402 -0.688651 -0.723197
0.172985 -0.625483 -0.760820
-0.290064 -0.645725 -0.706330
-0.951971 -0.281486 -0.120483
0.955445 -0.191912 -0.224264
0.810601 -0.079824 -0.580133
0.028048 -0.055759 -0.998050
-0.328378 -0.136289 -0.934662
-0.099119 -0.132334 -0.986237
0.148713 -0.054683 -0.987367
-0.346473 0.002830 -0.938056
-0.982629 0.026247 -0.183717
-0.984034 0.043151 0.172670
0.819544 0.215583 -0.530915
0.103088 0.564011 -0.819307
-0.222753 0.492861 -0.841112
-0.088943 0.498485 -0.862323
0.101203 0.569489 -0.815745
-0.291771 0.659728 -0.692553
-0.925278 0.354012 -0.136147
0.879219 0.366179 -0.304774
0.288533 0.893613 -0.343807
-0.017764 0.936271 -0.350829
-0.010838 0.938289 -0.345683
0.043805 0.950893 -0.306404
-0.217516 0.951610 -0.217084
-0.827553 0.560892 0.023600
0.935541 0.352601 -0.020889
0.483304 0.793637 0.369537
0.196451 0.778955 0.595513
0.143171 0.821381 0.552119
0.091415 0.898240 0.429893
-0.129675 0.904269 0.406794
-0.755149 0.556600 0.346332
0.965655 0.175965 0.191171
0.524413 0.060809 0.849290
0.186978 -0.350749 0.917613
0.227956 -0.169793 0.958753
0.303029 0.222508 0.926641
0.047484 0.385869 0.921331
-0.731481 0.267310 0.627280
0.956837 -0.105899 0.270646
0.386744 0.014473 0.922074
-0.045240 0.003707 0.998969
0.340558 -0.071007 0.937538
0.544566 -0.058965 0.836643
0.187993 -0.014500 0.982063
-0.759173 0.020205 0.650575
0.909573 -0.382541 0.162297
0.234059 0.066721 0.969930
-0.159040 0.449405 0.879057
0.370912 0.083454 0.924911
0.640943 -0.257522 0.723101
0.164966 -0.398718 0.902114
-0.819318 -0.175667 0.545765
0.865197 -0.499107 -0.048227
0.247126 -0.847485 0.469785
-0.212352 -0.717094 0.663840
0.225643 -0.834301 0.503019
0.457452 -0.835890 0.303356
-0.041828 -0.918896 0.392276
-0.872481 -0.376112 0.311955
0.843332 -0.483831 -0.233877
0.166765 -0.946394 -0.276636
-0.243919 -0.949882 -0.195519
0.037667 -0.967382 -0.250507
0.272827 -0.914067 -0.300080
-0.202316 -0.952421 -0.227952
-0.917731 -0.391852 0.064973
0.827628 -0.361237 -0.429579
0.087871 -0.654577 -0.750871
-0.319920 -0.678651 -0.661123
-0.044420 -0.688291 -0.724073
0.203060 -0.619016 -0.758674
-0.296348 -0.645011 -0.704372
-0.958962 -0.264083 -0.103214
0.961088 -0.173470 -0.214982
0.842243 -0.067206 -0.534893
0.050561 -0.058404 -0.997012
-0.361274 -0.146421 -0.920892
-0.082226 -0.143441 -0.986237
0.213318 -0.058692 -0.975218
-0.357406 0.003344 -0.933943
-0.990459 0.023840 -0.135729
-0.984192 0.038507 0.172866
0.844850 0.218163 -0.488502
0.135240 0.590819 -0.795389
-0.235257 0.523485 -0.818913
-0.073484 0.528524 -0.845732
0.148399 0.594010 -0.790652
-0.297622 0.693203 -0.656422
-0.936095 0.337912 -0.097683
0.890158 0.355536 -0.284977
0.321391 0.889445 -0.324954
-0.009369 0.944761 -0.327625
-0.000730 0.946561 -0.322523
0.060388 0.956473 -0.285504
-0.228783 0.954431 -0.191623
-0.839359 0.542142 0.039487
0.938787 0.342305 -0.038809
0.517288 0.785281 0.340216
0.206957 0.785626 0.583062
0.146647 0.831097 0.536444
0.090880 0.908577 0.407712
-0.155792 0.909558 0.385271
-0.769595 0.544808 0.333027
0.972233 0.175296 0.155028
0.580484 0.061252 0.811965
0.192647 -0.362477 0.911865
0.241151 -0.175375 0.954510
0.333732 0.239094 0.911843
0.024939 0.413801 0.910026
-0.756482 0.260524 0.599885
0.968065 -0.093334 0.232679
0.441854 -0.001307 0.897086
-0.085008 -0.014164 0.996280
0.379162 -0.080430 0.921828
0.606367 -0.064920 0.792530
0.186138 -0.015601 0.982400
-0.786001 0.016130 0.618014
0.925270 -0.356015 0.130875
0.242747 0.072586 0.967370
-0.210067 0.459311 0.863079
0.411600 0.084171 0.907469
0.704986 -0.263054 0.658633
0.161296 -0.429652 0.888472
-0.844153 -0.168117 0.509061
0.881731 -0.467592 -0.062507
0.241499 -0.860839 0.447923
-0.256524 -0.717840 0.647226
0.240500 -0.842997 0.481160
0.492944 -0.828807 0.264738
-0.051443 -0.929621 0.364910
-0.886502 -0.356624 0.294847
0.863392 -0.451583 -0.225006
0.178041 -0.950045 -0.256351
-0.261412 -0.950005 -0.170749
0.050217 -0.971519 -0.231579
0.309161 -0.908219 -0.282060
-0.203222 -0.957527 -0.204555
-0.925896 -0.369103 0.080500
0.853567 -0.337554 -0.396838
0.106680 -0.683770 -0.721858
-0.344363 -0.703301 -0.621918
-0.025633 -0.717382 -0.696209
0.258588 -0.636621 -0.726530
-0.297864 -0.677778 -0.672231
-0.966128 -0.249755 -0.064953
0.869246 -0.493035 -0.036443
0.531910 -0.292225 -0.794781
-0.247202 -0.048641 -0.967742
-0.350935 -0.236706 -0.905988
0.052837 -0.222821 -0.973426
0.038256 -0.009316 -0.999225
-0.753205 -0.052652 -0.655675
-0.997684 -0.026000 0.062856
-0.992634 0.079038 0.091815
0.670956 0.505604 -0.542386
0.072226 0.850353 -0.521233
0.051350 0.744815 -0.665293
0.209973 0.744539 -0.633698
0.117238 0.865661 -0.486709
-0.582157 0.698005 -0.416992
-0.999171 -0.003588 0.040541
0.707462 0.667679 -0.231738
0.153349 0.979534 -0.130375
0.263464 0.938181 -0.224506
0.261288 0.945933 -0.192193
0.149651 0.982745 -0.108702
-0.124128 0.978865 -0.162528
-0.958345 0.285028 0.018254
0.751510 0.651766 0.102141
0.198409 0.961375 0.190767
0.391853 0.871543 0.294728
0.292288 0.915459 0.276590
0.152761 0.968706 0.195635
0.137589 0.953168 0.269331
-0.833969 0.421408 0.356247
0.750790 0.398064 0.527124
0.206131 0.682347 0.701365
0.317142 0.366504 0.874698
0.338212 0.476981 0.811235
0.272651 0.705002 0.654701
0.079399 0.597910 0.797621
-0.860682 0.102414 0.498737
0.637648 -0.251806 0.728010
0.015747 -0.152610 0.988161
0.001021 -0.428660 0.903465
0.333675 -0.284929 0.898597
0.411819 0.024254 0.910943
-0.148348 0.014095 0.988835
-0.936507 0.014493 0.350351
0.365710 -0.815049 0.449391
-0.216780 -0.826181 0.520031
-0.277872 -0.896934 0.343942
0.182062 -0.865489 0.466670
0.368364 -0.654137 0.660616
-0.237378 -0.553922 0.798011
-0.966193 0.015519 0.257353
0.228285 -0.968425 0.100198
-0.380792 -0.910624 0.160505
-0.451444 -0.890564 0.055622
0.015426 -0.995749 0.090809
0.287199 -0.935620 0.205261
-0.165886 -0.933007 0.319342
-0.970230 -0.104339 0.218558
0.195191 -0.977425 -0.080873
-0.449446 -0.886594 0.109316
-0.496815 -0.833911 0.240350
-0.015791 -0.999165 0.037672
0.259129 -0.950184 -0.173210
-0.160001 -0.972661 -0.168316
-0.983924 -0.138455 0.112802
0.238427 -0.901966 -0.360014
-0.404322 -0.879763 -0.250080
-0.450405 -0.892435 -0.026372
-0.025606 -0.962362 -0.270563
0.138666 -0.826743 -0.545223
-0.409070 -0.730852 -0.546368
-0.999610 -0.022537 0.016503
0.818028 -0.512712 -0.260686
0.630218 -0.313495 -0.710314
-0.073478 -0.074021 -0.994546
-0.265581 -0.112137 -0.957545
-0.160482 -0.125745 -0.978996
-0.033080 -0.077238 -0.996464
-0.279695 0.020464 -0.959871
-0.916361 0.199972 -0.346834
-0.952305 0.255964 0.166127
0.730802 0.033989 -0.681743
0.075618 0.516552 -0.852910
-0.107369 0.460659 -0.881059
-0.045092 0.456650 -0.888503
0.062563 0.520429 -0.851610
-0.122488 0.631396 -0.765725
-0.749977 0.609016 -0.258135
0.887442 0.234125 -0.397029
0.285306 0.881494 -0.376255
0.115664 0.909956 -0.398248
0.118874 0.911478 -0.393799
0.152362 0.923651 -0.351645
0.023698 0.956492 -0.290796
-0.607013 0.793876 -0.035991
0.974047 0.226064 0.011280
0.446276 0.792806 0.415087
0.284793 0.755932 0.589457
0.261467 0.796594 0.545044
0.238986 0.872835 0.425494
0.128862 0.911005 0.391745
-0.546754 0.769297 0.330517
0.964800 0.015508 0.262526
0.363971 0.046441 0.930252
0.116412 -0.333444 0.935555
0.168651 -0.165717 0.971645
0.265564 0.191450 0.944893
0.171206 0.360100 0.917070
-0.574483 0.487912 0.657200
0.855163 -0.365204 0.367861
0.275564 0.025965 0.960932
0.074022 0.060044 0.995447
0.239213 -0.073371 0.968191
0.349064 -0.086524 0.933096
0.182631 -0.016594 0.983042
-0.660338 0.187617 0.727154
0.660023 -0.707178 0.253513
0.215512 0.040003 0.975682
0.077720 0.471211 0.878590
0.279079 0.062407 0.958238
0.368549 -0.308781 0.876827
0.101508 -0.366351 0.924923
-0.759904 -0.092856 0.643370
0.573880 -0.818757 0.017268
0.051892 -0.849481 0.525061
-0.172596 -0.688193 0.704699
0.019337 -0.828070 0.560291
0.128506 -0.900487 0.415464
-0.153009 -0.884255 0.441227
-0.865049 -0.346952 0.362372
0.548180 -0.808428 -0.214340
-0.076224 -0.962607 -0.259958
-0.312086 -0.926645 -0.209600
-0.171181 -0.956495 -0.236252
-0.048157 -0.959651 -0.277038
-0.313566 -0.920155 -0.234502
-0.925574 -0.377614 0.026817
0.565054 -0.659860 -0.495277
-0.111432 -0.649229 -0.752386
-0.337171 -0.631477 -0.698249
-0.205217 -0.656063 -0.726269
-0.078960 -0.634764 -0.768661
-0.346167 -0.589053 -0.730195
-0.953055 -0.210824 -0.217347
0.836849 -0.484951 -0.253980
0.652736 -0.298285 -0.696392
-0.062997 -0.075470 -0.995156
-0.273334 -0.110475 -0.955554
-0.156858 -0.126254 -0.979518
-0.016863 -0.079865 -0.996663
-0.288763 0.022190 -0.957143
-0.923418 0.196624 -0.329605
-0.954276 0.248138 0.166691
0.747240 0.042681 -0.663183
0.088223 0.513057 -0.853809
-0.110986 0.461272 -0.880290
-0.041946 0.456042 -0.888969
0.074941 0.517567 -0.852355
-0.130975 0.633108 -0.762903
-0.767026 0.591369 -0.248905
0.892550 0.235800 -0.384386
0.303299 0.874462 -0.378585
0.117978 0.909382 -0.398880
0.121526 0.910949 -0.394212
0.157553 0.922517 -0.352334
0.014199 0.957408 -0.288389
-0.625086 0.779853 -0.033114
0.974059 0.226145 0.008215
0.467033 0.783811 0.409293
0.289496 0.754828 0.588580
0.263759 0.796249 0.544443
0.239982 0.872676 0.425260
0.118057 0.911897 0.393073
-0.562438 0.756629 0.333430
0.965806 0.018066 0.258637
0.381648 0.040354 0.923426
0.117519 -0.333789 0.935294
0.171452 -0.166103 0.971089
0.272248 0.190342 0.943213
0.165422 0.361538 0.917565
-0.588193 0.471823 0.656820
0.866575 -0.345302 0.360297
0.285342 0.021738 0.958179
0.062206 0.058771 0.996332
0.247248 -0.075543 0.966003
0.367711 -0.090135 0.925561
0.183356 -0.016491 0.982908
-0.668989 0.183196 0.720343
0.691643 -0.678365 0.247892
0.218701 0.041648 0.974903
0.061306 0.472376 0.879262
0.288917 0.060706 0.955427
0.393189 -0.311277 0.865164
0.101950 -0.366196 0.924936
-0.767575 -0.080994 0.635821
0.607815 -0.793980 0.012504
0.061093 -0.849774 0.523595
-0.189759 -0.683697 0.704663
0.026429 -0.828902 0.558770
0.150016 -0.900113 0.409013
-0.158704 -0.882766 0.442195
-0.873385 -0.328564 0.359506
0.582025 -0.783327 -0.218281
-0.064604 -0.962961 -0.261786
-0.322846 -0.923433 -0.207464
-0.166819 -0.957063 -0.237070
-0.030186 -0.959706 -0.279379
-0.321990 -0.917690 -0.232741
-0.933439 -0.357359 0.031414
0.595435 -0.636551 -0.490163
-0.099777 -0.649748 -0.753573
-0.347135 -0.628799 -0.695779
-0.200976 -0.656505 -0.727056
-0.061170 -0.635684 -0.769522
-0.354970 -0.586738 -0.727828
-0.959160 -0.194522 -0.205359
0.836759 -0.485076 -0.254037
0.652786 -0.297953 -0.696487
-0.062785 -0.075487 -0.995168
-0.273364 -0.110641 -0.955526
-0.156941 -0.126368 -0.979490
-0.016900 -0.080021 -0.996650
-0.288710 0.021985 -0.957164
-0.923401 0.196579 -0.329678
-0.954241 0.248209 0.166782
0.747026 0.042516 -0.663434
0.088455 0.513007 -0.853815
-0.110857 0.461400 -0.880239
-0.042028 0.455928 -0.889024
0.074895 0.517597 -0.852340
-0.130885 0.633309 -0.762750
-0.767132 0.591245 -0.248874
0.892442 0.235696 -0.384701
0.303299 0.874464 -0.378580
0.118069 0.909421 -0.398764
0.121643 0.910953 -0.394167
0.157348 0.922619 -0.352160
0.014094 0.957485 -0.288138
-0.625084 0.779857 -0.033044
0.974050 0.226171 0.008535
0.466942 0.783845 0.409331
0.289555 0.754781 0.588612
0.263877 0.796141 0.544544
0.239629 0.872783 0.425239
0.117877 0.911879 0.393170
-0.562435 0.756418 0.333914
0.965736 0.018383 0.258875
0.381619 0.040458 0.923434
0.117569 -0.333841 0.935269
0.171420 -0.166295 0.971062
0.272025 0.190389 0.943268
0.165270 0.361638 0.917553
-0.587992 0.471662 0.657115
0.866654 -0.344994 0.360403
0.285333 0.022049 0.958175
0.062322 0.059014 0.996310
0.247278 -0.075188 0.966023
0.367747 -0.089888 0.925571
0.183341 -0.016331 0.982914
-0.668977 0.183515 0.720272
0.691420 -0.678632 0.247783
0.218717 0.041825 0.974892
0.061335 0.472556 0.879164
0.289014 0.060889 0.955387
0.393274 -0.311078 0.865197
0.101874 -0.366225 0.924933
-0.767608 -0.080876 0.635796
0.607619 -0.794131 0.012407
0.061219 -0.849796 0.523544
-0.189843 -0.683744 0.704595
0.026416 -0.829021 0.558593
0.150015 -0.900134 0.408968
-0.158785 -0.882721 0.442256
-0.873399 -0.328317 0.359698
0.581997 -0.783440 -0.217948
-0.064425 -0.963013 -0.261640
-0.322936 -0.923407 -0.207443
-0.166856 -0.957090 -0.236935
-0.030134 -0.959735 -0.279285
-0.321861 -0.917707 -0.232851
-0.933525 -0.357123 0.031520
0.595587 -0.636493 -0.490054
-0.099646 -0.649889 -0.753469
-0.347205 -0.628928 -0.695628
-0.200976 -0.656566 -0.727001
-0.061190 -0.635763 -0.769455
-0.354834 -0.586787 -0.727855
-0.959173 -0.194267 -0.205540
0.836812 -0.484999 -0.254010
0.652936 -0.297707 -0.696452
-0.062768 -0.075091 -0.995199
-0.273450 -0.110442 -0.955525
-0.156962 -0.126430 -0.979479
-0.016896 -0.080102 -0.996643
-0.288696 0.022258 -0.957162
-0.923310 0.196977 -0.329696
-0.954252 0.248312 0.166564
0.747088 0.043073 -0.663328
0.088415 0.513306 -0.853639
-0.110900 0.461454 -0.880205
-0.042038 0.455853 -0.889062
0.074862 0.517474 -0.852418
-0.131109 0.633176 -0.762822
-0.767060 0.591328 -0.248899
0.892387 0.235920 -0.384690
0.303220 0.874460 -0.378652
0.118011 0.909396 -0.398838
0.121590 0.910934 -0.394227
0.157405 0.922527 -0.352375
0.014039 0.957398 -0.288429
-0.625150 0.779796 -0.033240
0.973987 0.226449 0.008388
0.466879 0.783890 0.409318
0.289500 0.754818 0.588591
0.263790 0.796226 0.544463
0.239834 0.872730 0.425231
0.118105 0.911843 0.393183
-0.562358 0.756633 0.333556
0.965750 0.018458 0.258817
0.381551 0.040394 0.923465
0.117566 -0.333820 0.935277
0.171460 -0.166070 0.971093
0.272130 0.190617 0.943192
0.165499 0.361529 0.917555
-0.588082 0.471795 0.656939
0.866585 -0.345116 0.360453
0.285348 0.021852 0.958175
0.062301 0.059101 0.996306
0.247380 -0.075226 0.965994
0.367715 -0.089901 0.925583
0.183400 -0.016412 0.982901
-0.669066 0.183271 0.720252
0.691408 -0.678622 0.247845
0.218809 0.041892 0.974868
0.061385 0.472691 0.879087
0.289096 0.060722 0.955372
0.393175 -0.311366 0.865138
0.101847 -0.366350 0.924887
-0.767759 -0.081027 0.635595
0.607536 -0.794194 0.012486
0.061207 -0.849806 0.523530
-0.189791 -0.683714 0.704638
0.026493 -0.829025 0.558584
0.149943 -0.900155 0.408947
-0.158815 -0.882773 0.442143
-0.873403 -0.328484 0.359536
0.581865 -0.783549 -0.217911
-0.064467 -0.963035 -0.261547
-0.322928 -0.923407 -0.207453
-0.166831 -0.957052 -0.237104
-0.030224 -0.959690 -0.279431
-0.321937 -0.917676 -0.232868
-0.933496 -0.357206 0.031443
0.595493 -0.636622 -0.490000
-0.099673 -0.649968 -0.753397
-0.347260 -0.628870 -0.695653
-0.200988 -0.656453 -0.727099
-0.061239 -0.635738 -0.769472
-0.354784 -0.586658 -0.727984
-0.959149 -0.194188 -0.205729
</DataArray>
         </PointData>
         <Points>
            <DataArray NumberOfComponents="3" format="ascii" type="Float32">	0.078003 -0.003002 -0.008488
0.072961 -0.003002 -0.011777
0.064727 -0.003002 -0.011985
0.065450 -0.003002 -0.008132
0.059796 -0.003002 -0.007997
0.052607 -0.003002 -0.010446
0.051473 -0.003002 -0.005904
0.056252 -0.003002 0.002883
0.074432 -0.001559 -0.010730
0.066875 -0.000677 -0.009290
0.063641 -0.001198 -0.006115
0.057863 0.000084 -0.006747
0.053122 0.000604 -0.005752
0.052426 0.000084 -0.003904
0.076307 -0.001057 -0.008910
0.069421 -0.000279 -0.005832
0.062679 -0.000019 -0.002481
0.057831 0.002834 -0.001865
0.054528 0.001666 0.000646
0.054636 0.001796 0.000501
0.077380 -0.001057 -0.006855
0.070924 -0.000279 -0.002957
0.064325 -0.000019 0.000667
0.061052 0.002834 0.004296
0.057105 0.001666 0.005575
0.057285 0.001796 0.005567
0.078171 -0.001679 -0.004811
0.073919 -0.001039 -0.000762
0.067198 -0.001639 0.001041
0.063950 -0.000757 0.005248
0.060525 -0.000276 0.008409
0.058793 -0.000517 0.008630
0.078493 -0.003002 -0.003666
0.076317 -0.003002 0.000292
0.068982 -0.003002 -0.000669
0.064485 -0.003002 0.001681
0.062568 -0.003002 0.008608
0.058712 -0.003002 0.008649
0.077587 -0.004444 -0.004163
0.074202 -0.005767 0.001373
0.069760 -0.004325 -0.000414
0.065376 -0.004605 0.002678
0.063228 -0.006488 0.009164
0.058841 -0.005527 0.008719
0.076038 -0.005337 -0.005891
0.070335 -0.008320 -0.000904
0.069509 -0.005856 -0.002131
0.064831 -0.006763 0.000926
0.061410 -0.010135 0.004981
0.057322 -0.007930 0.005637
0.074749 -0.005337 -0.008356
0.067400 -0.008320 -0.006520
0.067935 -0.005856 -0.005143
0.062755 -0.006763 -0.003045
0.057472 -0.010135 -0.002550
0.054601 -0.007930 0.000433
0.073567 -0.004565 -0.010619
0.065286 -0.006128 -0.010741
0.066299 -0.004766 -0.007390
0.060789 -0.005447 -0.006451
0.054044 -0.007370 -0.008402
0.052379 -0.006128 -0.003994
0.063993 -0.003002 -0.034154
0.062329 -0.003002 -0.035240
0.059612 -0.003002 -0.035309
0.059851 -0.003002 -0.034037
0.057985 -0.003002 -0.033992
0.055613 -0.003002 -0.034801
0.055238 -0.003002 -0.033302
0.056815 -0.003002 -0.030402
0.062814 -0.002526 -0.034895
0.060321 -0.002235 -0.034419
0.059254 -0.002406 -0.033372
0.057347 -0.001984 -0.033580
0.055783 -0.001812 -0.033251
0.055552 -0.001984 -0.032642
0.063433 -0.002360 -0.034293